VIBRIO VULNIFICUS A-RIBOSWITCH in water
132253
   13C      O5'    1   2.695   6.812   5.812
   13C      H5T    2   2.731   6.751   5.878
   13C      C5'    3   2.799   6.871   5.735
   13C     H5'1    4   2.869   6.792   5.708
   13C     H5'2    5   2.854   6.944   5.793
   13C      C4'    6   2.746   6.935   5.604
   13C      H4'    7   2.689   6.858   5.552
   13C      O4'    8   2.659   7.048   5.613
   13C      C1'    9   2.711   7.157   5.534
   13C      H1'   10   2.632   7.208   5.478
   13C       N1   11   2.781   7.253   5.625
   13C       C6   12   2.789   7.227   5.760
   13C       H6   13   2.752   7.135   5.803
   13C       C5   14   2.841   7.318   5.843
   13C       H5   15   2.848   7.297   5.949
   13C       C4   16   2.883   7.441   5.789
   13C       N4   17   2.932   7.531   5.868
   13C      H41   18   2.947   7.506   5.965
   13C      H42   19   2.985   7.607   5.825
   13C       N3   20   2.871   7.472   5.661
   13C       C2   21   2.827   7.376   5.576
   13C       O2   22   2.829   7.404   5.456
   13C      C3'   23   2.864   6.976   5.516
   13C      H3'   24   2.948   7.010   5.576
   13C      C2'   25   2.805   7.091   5.435
   13C     H2'1   26   2.882   7.159   5.399
   13C      O2'   27   2.733   7.034   5.328
   13C     HO'2   28   2.793   6.964   5.297
   13C      O3'   29   2.895   6.871   5.427
   14G        P   30   3.039   6.813   5.418
   14G      O1P   31   3.031   6.690   5.336
   14G      O2P   32   3.093   6.808   5.554
   14G      O5'   33   3.114   6.927   5.335
   14G      C5'   34   3.103   6.933   5.193
   14G     H5'1   35   2.998   6.922   5.164
   14G     H5'2   36   3.160   6.850   5.150
   14G      C4'   37   3.156   7.065   5.134
   14G      H4'   38   3.146   7.056   5.026
   14G      O4'   39   3.084   7.181   5.175
   14G      C1'   40   3.177   7.286   5.203
   14G      H1'   41   3.148   7.379   5.154
   14G       N9   42   3.183   7.310   5.350
   14G       C8   43   3.137   7.231   5.453
   14G       H8   44   3.097   7.132   5.438
   14G       N7   45   3.144   7.287   5.571
   14G       C5   46   3.205   7.410   5.546
   14G       C6   47   3.244   7.518   5.633
   14G       O6   48   3.225   7.531   5.754
   14G       N1   49   3.309   7.620   5.568
   14G       H1   50   3.346   7.696   5.623
   14G       C2   51   3.321   7.626   5.434
   14G       N2   52   3.350   7.745   5.387
   14G      H21   53   3.371   7.819   5.454
   14G      H22   54   3.320   7.767   5.294
   14G       N3   55   3.285   7.532   5.348
   14G       C4   56   3.230   7.424   5.411
   14G      C3'   57   3.303   7.089   5.164
   14G      H3'   58   3.327   7.058   5.266
   14G      C2'   59   3.314   7.240   5.149
   14G     H2'1   60   3.395   7.279   5.211
   14G      O2'   61   3.334   7.273   5.011
   14G     HO'2   62   3.396   7.205   4.980
   14G      O3'   63   3.383   7.027   5.066
   15C        P   64   3.524   6.965   5.104
   15C      O1P   65   3.572   6.907   4.976
   15C      O2P   66   3.501   6.882   5.225
   15C      O5'   67   3.605   7.100   5.146
   15C      C5'   68   3.665   7.188   5.051
   15C     H5'1   69   3.594   7.206   4.971
   15C     H5'2   70   3.752   7.138   5.008
   15C      C4'   71   3.709   7.326   5.107
   15C      H4'   72   3.732   7.387   5.020
   15C      O4'   73   3.610   7.394   5.184
   15C      C1'   74   3.669   7.477   5.285
   15C      H1'   75   3.642   7.582   5.270
   15C       N1   76   3.631   7.435   5.423
   15C       C6   77   3.581   7.309   5.445
   15C       H6   78   3.581   7.236   5.365
   15C       C5   79   3.531   7.278   5.567
   15C       H5   80   3.490   7.180   5.583
   15C       C4   81   3.537   7.375   5.670
   15C       N4   82   3.485   7.351   5.787
   15C      H41   83   3.460   7.257   5.808
   15C      H42   84   3.483   7.424   5.859
   15C       N3   85   3.588   7.496   5.652
   15C       C2   86   3.634   7.528   5.529
   15C       O2   87   3.673   7.643   5.513
   15C      C3'   88   3.836   7.330   5.193
   15C      H3'   89   3.840   7.245   5.262
   15C      C2'   90   3.820   7.464   5.266
   15C     H2'1   91   3.875   7.466   5.360
   15C      O2'   92   3.864   7.565   5.177
   15C     HO'2   93   3.922   7.511   5.120
   15C      O3'   94   3.951   7.343   5.110
   16U        P   95   4.093   7.296   5.163
   16U      O1P   96   4.188   7.314   5.052
   16U      O2P   97   4.075   7.165   5.226
   16U      O5'   98   4.125   7.396   5.282
   16U      C5'   99   4.190   7.519   5.261
   16U     H5'1  100   4.135   7.580   5.190
   16U     H5'2  101   4.289   7.498   5.222
   16U      C4'  102   4.204   7.595   5.394
   16U      H4'  103   4.247   7.693   5.375
   16U      O4'  104   4.078   7.615   5.459
   16U      C1'  105   4.101   7.612   5.600
   16U      H1'  106   4.078   7.710   5.643
   16U       N1  107   4.020   7.508   5.671
   16U       C6  108   3.987   7.385   5.616
   16U       H6  109   4.027   7.359   5.518
   16U       C5  110   3.908   7.298   5.684
   16U       H5  111   3.883   7.201   5.642
   16U       C4  112   3.855   7.329   5.816
   16U       O4  113   3.777   7.262   5.882
   16U       N3  114   3.897   7.449   5.866
   16U       H3  115   3.869   7.472   5.961
   16U       C2  116   3.982   7.536   5.803
   16U       O2  117   4.024   7.633   5.866
   16U      C3'  118   4.297   7.524   5.490
   16U      H3'  119   4.278   7.416   5.491
   16U      C2'  120   4.250   7.588   5.621
   16U     H2'1  121   4.269   7.523   5.706
   16U      O2'  122   4.313   7.714   5.638
   16U     HO'2  123   4.408   7.696   5.645
   16U      O3'  124   4.433   7.555   5.462
   17U        P  125   4.552   7.457   5.506
   17U      O1P  126   4.672   7.541   5.514
   17U      O2P  127   4.547   7.340   5.416
   17U      O5'  128   4.509   7.421   5.655
   17U      C5'  129   4.603   7.408   5.761
   17U     H5'1  130   4.705   7.412   5.724
   17U     H5'2  131   4.589   7.310   5.806
   17U      C4'  132   4.585   7.518   5.869
   17U      H4'  133   4.657   7.596   5.847
   17U      O4'  134   4.455   7.578   5.874
   17U      C1'  135   4.403   7.574   6.007
   17U      H1'  136   4.352   7.668   6.030
   17U       N1  137   4.305   7.461   6.023
   17U       C6  138   4.290   7.365   5.926
   17U       H6  139   4.351   7.367   5.836
   17U       C5  140   4.198   7.267   5.937
   17U       H5  141   4.187   7.195   5.857
   17U       C4  142   4.113   7.255   6.052
   17U       O4  143   4.026   7.169   6.065
   17U       N3  144   4.131   7.354   6.146
   17U       H3  145   4.068   7.351   6.225
   17U       C2  146   4.217   7.462   6.133
   17U       O2  147   4.209   7.555   6.213
   17U      C3'  148   4.616   7.466   6.010
   17U      H3'  149   4.582   7.363   6.021
   17U      C2'  150   4.528   7.559   6.094
   17U     H2'1  151   4.503   7.514   6.190
   17U      O2'  152   4.594   7.684   6.114
   17U     HO'2  153   4.689   7.666   6.099
   17U      O3'  154   4.753   7.484   6.044
   18C        P  155   4.840   7.359   6.090
   18C      O1P  156   4.980   7.400   6.111
   18C      O2P  157   4.809   7.245   6.002
   18C      O5'  158   4.774   7.326   6.229
   18C      C5'  159   4.787   7.416   6.336
   18C     H5'1  160   4.776   7.519   6.300
   18C     H5'2  161   4.885   7.405   6.382
   18C      C4'  162   4.678   7.390   6.439
   18C      H4'  163   4.688   7.464   6.517
   18C      O4'  164   4.547   7.403   6.387
   18C      C1'  165   4.461   7.318   6.462
   18C      H1'  166   4.380   7.377   6.508
   18C       N1  167   4.400   7.213   6.376
   18C       C6  168   4.443   7.186   6.249
   18C       H6  169   4.526   7.241   6.207
   18C       C5  170   4.382   7.089   6.176
   18C       H5  171   4.414   7.068   6.075
   18C       C4  172   4.274   7.020   6.236
   18C       N4  173   4.210   6.929   6.169
   18C      H41  174   4.234   6.905   6.074
   18C      H42  175   4.127   6.889   6.212
   18C       N3  176   4.228   7.048   6.356
   18C       C2  177   4.293   7.140   6.429
   18C       O2  178   4.256   7.157   6.545
   18C      C3'  179   4.687   7.254   6.507
   18C      H3'  180   4.703   7.174   6.435
   18C      C2'  181   4.547   7.252   6.570
   18C     H2'1  182   4.515   7.149   6.588
   18C      O2'  183   4.536   7.329   6.689
   18C     HO'2  184   4.523   7.265   6.759
   18C      O3'  185   4.789   7.267   6.603
   19A        P  186   4.871   7.147   6.661
   19A      O1P  187   4.958   7.209   6.764
   19A      O2P  188   4.929   7.074   6.548
   19A      O5'  189   4.760   7.058   6.735
   19A      C5'  190   4.732   7.082   6.872
   19A     H5'1  191   4.702   7.186   6.885
   19A     H5'2  192   4.823   7.065   6.929
   19A      C4'  193   4.623   6.991   6.927
   19A      H4'  194   4.600   7.021   7.029
   19A      O4'  195   4.504   6.999   6.850
   19A      C1'  196   4.443   6.870   6.844
   19A      H1'  197   4.344   6.871   6.893
   19A       N9  198   4.426   6.830   6.702
   19A       C8  199   4.494   6.875   6.591
   19A       H8  200   4.578   6.943   6.597
   19A       N7  201   4.449   6.830   6.477
   19A       C5  202   4.345   6.744   6.517
   19A       C6  203   4.255   6.658   6.448
   19A       N6  204   4.253   6.642   6.317
   19A      H61  205   4.304   6.708   6.261
   19A      H62  206   4.180   6.585   6.276
   19A       N1  207   4.166   6.586   6.514
   19A       C2  208   4.162   6.599   6.646
   19A       H2  209   4.085   6.542   6.696
   19A       N3  210   4.239   6.673   6.725
   19A       C4  211   4.331   6.744   6.653
   19A      C3'  212   4.668   6.845   6.931
   19A      H3'  213   4.731   6.821   6.845
   19A      C2'  214   4.532   6.774   6.923
   19A     H2'1  215   4.541   6.677   6.873
   19A      O2'  216   4.477   6.761   7.052
   19A     HO'2  217   4.552   6.742   7.110
   19A      O3'  218   4.734   6.820   7.056
   20U        P  219   4.845   6.707   7.071
   20U      O1P  220   4.880   6.699   7.215
   20U      O2P  221   4.951   6.726   6.970
   20U      O5'  222   4.758   6.577   7.038
   20U      C5'  223   4.678   6.519   7.140
   20U     H5'1  224   4.621   6.597   7.190
   20U     H5'2  225   4.745   6.474   7.214
   20U      C4'  226   4.579   6.411   7.094
   20U      H4'  227   4.519   6.379   7.179
   20U      O4'  228   4.489   6.457   6.995
   20U      C1'  229   4.448   6.346   6.918
   20U      H1'  230   4.342   6.327   6.934
   20U       N1  231   4.472   6.371   6.774
   20U       C6  232   4.577   6.449   6.730
   20U       H6  233   4.647   6.488   6.803
   20U       C5  234   4.591   6.479   6.599
   20U       H5  235   4.672   6.542   6.565
   20U       C4  236   4.498   6.427   6.500
   20U       O4  237   4.502   6.447   6.380
   20U       N3  238   4.399   6.347   6.551
   20U       H3  239   4.336   6.305   6.484
   20U       C2  240   4.380   6.317   6.683
   20U       O2  241   4.284   6.248   6.717
   20U      C3'  242   4.646   6.287   7.037
   20U      H3'  243   4.721   6.317   6.963
   20U      C2'  244   4.525   6.224   6.969
   20U     H2'1  245   4.554   6.157   6.887
   20U      O2'  246   4.439   6.159   7.062
   20U     HO'2  247   4.479   6.074   7.083
   20U      O3'  248   4.701   6.205   7.138
   21A        P  249   4.828   6.115   7.108
   21A      O1P  250   4.857   6.041   7.233
   21A      O2P  251   4.933   6.202   7.050
   21A      O5'  252   4.779   6.015   6.993
   21A      C5'  253   4.712   5.894   7.021
   21A     H5'1  254   4.626   5.913   7.085
   21A     H5'2  255   4.780   5.827   7.074
   21A      C4'  256   4.663   5.824   6.893
   21A      H4'  257   4.606   5.736   6.922
   21A      O4'  258   4.580   5.908   6.815
   21A      C1'  259   4.577   5.856   6.682
   21A      H1'  260   4.483   5.807   6.661
   21A       N9  261   4.599   5.963   6.582
   21A       C8  262   4.678   6.075   6.594
   21A       H8  263   4.728   6.101   6.686
   21A       N7  264   4.687   6.145   6.484
   21A       C5  265   4.611   6.072   6.392
   21A       C6  266   4.579   6.083   6.254
   21A       N6  267   4.621   6.176   6.171
   21A      H61  268   4.689   6.244   6.204
   21A      H62  269   4.575   6.188   6.082
   21A       N1  270   4.496   5.997   6.194
   21A       C2  271   4.447   5.899   6.268
   21A       H2  272   4.380   5.831   6.217
   21A       N3  273   4.469   5.873   6.395
   21A       C4  274   4.553   5.964   6.452
   21A      C3'  275   4.771   5.775   6.796
   21A      H3'  276   4.842   5.855   6.776
   21A      C2'  277   4.684   5.749   6.672
   21A     H2'1  278   4.740   5.757   6.579
   21A      O2'  279   4.619   5.624   6.680
   21A     HO'2  280   4.681   5.563   6.724
   21A      O3'  281   4.833   5.652   6.831
   22U        P  282   4.984   5.649   6.874
   22U      O1P  283   5.026   5.509   6.892
   22U      O2P  284   5.005   5.745   6.983
   22U      O5'  285   5.047   5.709   6.739
   22U      C5'  286   5.181   5.750   6.724
   22U     H5'1  287   5.247   5.666   6.745
   22U     H5'2  288   5.202   5.831   6.794
   22U      C4'  289   5.209   5.801   6.581
   22U      H4'  290   5.310   5.840   6.579
   22U      O4'  291   5.199   5.694   6.487
   22U      C1'  292   5.086   5.711   6.403
   22U      H1'  293   5.120   5.743   6.304
   22U       N1  294   5.010   5.584   6.392
   22U       C6  295   4.976   5.508   6.503
   22U       H6  296   5.005   5.540   6.601
   22U       C5  297   4.912   5.390   6.490
   22U       H5  298   4.886   5.332   6.577
   22U       C4  299   4.880   5.337   6.360
   22U       O4  300   4.828   5.229   6.339
   22U       N3  301   4.914   5.417   6.255
   22U       H3  302   4.892   5.382   6.163
   22U       C2  303   4.980   5.537   6.264
   22U       O2  304   5.014   5.592   6.160
   22U      C3'  305   5.109   5.909   6.535
   22U      H3'  306   5.066   5.961   6.620
   22U      C2'  307   5.003   5.826   6.462
   22U     H2'1  308   4.934   5.785   6.535
   22U      O2'  309   4.932   5.902   6.365
   22U     HO'2  310   4.971   5.991   6.368
   22U      O3'  311   5.161   6.005   6.442
   23A        P  312   5.293   6.092   6.469
   23A      O1P  313   5.322   6.091   6.613
   23A      O2P  314   5.278   6.222   6.398
   23A      O5'  315   5.405   6.007   6.400
   23A      C5'  316   5.538   6.051   6.403
   23A     H5'1  317   5.562   6.088   6.503
   23A     H5'2  318   5.549   6.133   6.332
   23A      C4'  319   5.633   5.937   6.368
   23A      H4'  320   5.734   5.977   6.364
   23A      O4'  321   5.630   5.831   6.463
   23A      C1'  322   5.654   5.709   6.395
   23A      H1'  323   5.750   5.670   6.427
   23A       N9  324   5.550   5.611   6.439
   23A       C8  325   5.546   5.557   6.565
   23A       H8  326   5.618   5.582   6.642
   23A       N7  327   5.448   5.475   6.587
   23A       C5  328   5.389   5.462   6.460
   23A       C6  329   5.291   5.376   6.405
   23A       N6  330   5.234   5.277   6.471
   23A      H61  331   5.251   5.269   6.570
   23A      H62  332   5.169   5.217   6.422
   23A       N1  333   5.253   5.385   6.277
   23A       C2  334   5.310   5.479   6.205
   23A       H2  335   5.277   5.488   6.102
   23A       N3  336   5.407   5.563   6.241
   23A       C4  337   5.445   5.549   6.371
   23A      C3'  338   5.603   5.879   6.230
   23A      H3'  339   5.495   5.870   6.214
   23A      C2'  340   5.668   5.742   6.245
   23A     H2'1  341   5.617   5.669   6.183
   23A      O2'  342   5.805   5.751   6.209
   23A     HO'2  343   5.807   5.797   6.123
   23A      O3'  344   5.667   5.956   6.129
   24A        P  345   5.614   5.965   5.979
   24A      O1P  346   5.720   6.029   5.899
   24A      O2P  347   5.484   6.032   5.982
   24A      O5'  348   5.589   5.817   5.922
   24A      C5'  349   5.473   5.739   5.952
   24A     H5'1  350   5.406   5.792   6.019
   24A     H5'2  351   5.506   5.648   6.002
   24A      C4'  352   5.395   5.694   5.828
   24A      H4'  353   5.335   5.609   5.859
   24A      O4'  354   5.304   5.788   5.775
   24A      C1'  355   5.293   5.771   5.634
   24A      H1'  356   5.189   5.753   5.603
   24A       N9  357   5.339   5.899   5.577
   24A       C8  358   5.396   6.003   5.645
   24A       H8  359   5.425   5.995   5.748
   24A       N7  360   5.410   6.112   5.575
   24A       C5  361   5.354   6.078   5.452
   24A       C6  362   5.323   6.148   5.333
   24A       N6  363   5.337   6.277   5.314
   24A      H61  364   5.374   6.339   5.386
   24A      H62  365   5.302   6.309   5.226
   24A       N1  366   5.264   6.088   5.230
   24A       C2  367   5.234   5.960   5.244
   24A       H2  368   5.185   5.913   5.159
   24A       N3  369   5.250   5.882   5.350
   24A       C4  370   5.312   5.948   5.452
   24A      C3'  371   5.480   5.648   5.711
   24A      H3'  372   5.559   5.721   5.694
   24A      C2'  373   5.380   5.651   5.594
   24A     H2'1  374   5.431   5.668   5.499
   24A      O2'  375   5.299   5.533   5.588
   24A     HO'2  376   5.359   5.456   5.594
   24A      O3'  377   5.530   5.518   5.732
   25U        P  378   5.664   5.473   5.661
   25U      O1P  379   5.714   5.579   5.572
   25U      O2P  380   5.639   5.339   5.607
   25U      O5'  381   5.763   5.447   5.783
   25U      C5'  382   5.804   5.546   5.875
   25U     H5'1  383   5.736   5.631   5.872
   25U     H5'2  384   5.904   5.580   5.848
   25U      C4'  385   5.803   5.487   6.017
   25U      H4'  386   5.859   5.554   6.081
   25U      O4'  387   5.670   5.473   6.069
   25U      C1'  388   5.660   5.358   6.151
   25U      H1'  389   5.622   5.384   6.251
   25U       N1  390   5.569   5.257   6.089
   25U       C6  391   5.547   5.254   5.953
   25U       H6  392   5.594   5.328   5.890
   25U       C5  393   5.465   5.163   5.896
   25U       H5  394   5.451   5.162   5.789
   25U       C4  395   5.392   5.068   5.975
   25U       O4  396   5.312   4.988   5.929
   25U       N3  397   5.422   5.072   6.110
   25U       H3  398   5.380   5.001   6.169
   25U       C2  399   5.507   5.162   6.172
   25U       O2  400   5.527   5.156   6.293
   25U      C3'  401   5.866   5.348   6.033
   25U      H3'  402   5.832   5.283   5.953
   25U      C2'  403   5.803   5.306   6.165
   25U     H2'1  404   5.805   5.198   6.177
   25U      O2'  405   5.868   5.373   6.273
   25U     HO'2  406   5.963   5.365   6.255
   25U      O3'  407   6.007   5.347   6.045
   26C        P  408   6.087   5.214   6.009
   26C      O1P  409   6.226   5.239   6.050
   26C      O2P  410   6.053   5.181   5.869
   26C      O5'  411   6.029   5.106   6.110
   26C      C5'  412   6.079   5.101   6.242
   26C     H5'1  413   6.064   5.197   6.290
   26C     H5'2  414   6.186   5.078   6.241
   26C      C4'  415   6.009   4.994   6.325
   26C      H4'  416   6.038   5.005   6.430
   26C      O4'  417   5.868   5.004   6.316
   26C      C1'  418   5.813   4.873   6.320
   26C      H1'  419   5.746   4.864   6.406
   26C       N1  420   5.738   4.842   6.195
   26C       C6  421   5.766   4.902   6.075
   26C       H6  422   5.852   4.965   6.064
   26C       C5  423   5.686   4.878   5.968
   26C       H5  424   5.709   4.919   5.871
   26C       C4  425   5.577   4.790   5.986
   26C       N4  426   5.500   4.758   5.885
   26C      H41  427   5.527   4.789   5.792
   26C      H42  428   5.450   4.671   5.898
   26C       N3  429   5.555   4.727   6.099
   26C       C2  430   5.637   4.747   6.203
   26C       O2  431   5.619   4.680   6.305
   26C      C3'  432   6.046   4.853   6.280
   26C      H3'  433   6.047   4.847   6.171
   26C      C2'  434   5.928   4.775   6.339
   26C     H2'1  435   5.912   4.682   6.284
   26C      O2'  436   5.946   4.750   6.477
   26C     HO'2  437   6.034   4.712   6.483
   26C      O3'  438   6.169   4.815   6.338
   27C        P  439   6.258   4.699   6.276
   27C      O1P  440   6.382   4.695   6.358
   27C      O2P  441   6.263   4.713   6.130
   27C      O5'  442   6.167   4.572   6.312
   27C      C5'  443   6.178   4.509   6.437
   27C     H5'1  444   6.164   4.582   6.516
   27C     H5'2  445   6.279   4.468   6.444
   27C      C4'  446   6.076   4.395   6.456
   27C      H4'  447   6.072   4.372   6.562
   27C      O4'  448   5.945   4.432   6.412
   27C      C1'  449   5.880   4.319   6.353
   27C      H1'  450   5.782   4.303   6.399
   27C       N1  451   5.863   4.332   6.205
   27C       C6  452   5.927   4.431   6.134
   27C       H6  453   5.993   4.499   6.184
   27C       C5  454   5.907   4.444   6.001
   27C       H5  455   5.954   4.525   5.948
   27C       C4  456   5.818   4.354   5.938
   27C       N4  457   5.788   4.371   5.812
   27C      H41  458   5.830   4.444   5.758
   27C      H42  459   5.711   4.317   5.772
   27C       N3  460   5.750   4.262   6.006
   27C       C2  461   5.773   4.247   6.139
   27C       O2  462   5.711   4.158   6.199
   27C      C3'  463   6.110   4.265   6.383
   27C      H3'  464   6.142   4.287   6.281
   27C      C2'  465   5.970   4.202   6.386
   27C     H2'1  466   5.962   4.123   6.311
   27C      O2'  467   5.938   4.154   6.516
   27C     HO'2  468   6.007   4.088   6.536
   27C      O3'  469   6.201   4.180   6.452
   28U        P  470   6.296   4.081   6.370
   28U      O1P  471   6.373   3.999   6.466
   28U      O2P  472   6.366   4.170   6.277
   28U      O5'  473   6.189   3.991   6.292
   28U      C5'  474   6.129   3.879   6.353
   28U     H5'1  475   6.082   3.909   6.447
   28U     H5'2  476   6.208   3.806   6.373
   28U      C4'  477   6.025   3.814   6.263
   28U      H4'  478   5.977   3.733   6.318
   28U      O4'  479   5.925   3.905   6.218
   28U      C1'  480   5.881   3.863   6.089
   28U      H1'  481   5.775   3.840   6.092
   28U       N1  482   5.905   3.967   5.985
   28U       C6  483   6.015   4.050   5.988
   28U       H6  484   6.081   4.051   6.075
   28U       C5  485   6.046   4.127   5.881
   28U       H5  486   6.133   4.191   5.883
   28U       C4  487   5.965   4.126   5.761
   28U       O4  488   5.991   4.185   5.657
   28U       N3  489   5.851   4.049   5.771
   28U       H3  490   5.787   4.054   5.692
   28U       C2  491   5.822   3.962   5.873
   28U       O2  492   5.729   3.881   5.864
   28U      C3'  493   6.086   3.755   6.136
   28U      H3'  494   6.153   3.828   6.091
   28U      C2'  495   5.960   3.738   6.051
   28U     H2'1  496   5.987   3.739   5.945
   28U      O2'  497   5.885   3.620   6.082
   28U     HO'2  498   5.949   3.549   6.063
   28U      O3'  499   6.152   3.634   6.163
   29A        P  500   6.266   3.581   6.067
   29A      O1P  501   6.342   3.476   6.140
   29A      O2P  502   6.335   3.696   6.005
   29A      O5'  503   6.174   3.513   5.955
   29A      C5'  504   6.123   3.381   5.967
   29A     H5'1  505   6.055   3.377   6.052
   29A     H5'2  506   6.205   3.312   5.985
   29A      C4'  507   6.048   3.340   5.839
   29A      H4'  508   6.005   3.241   5.854
   29A      O4'  509   5.943   3.432   5.808
   29A      C1'  510   5.941   3.455   5.667
   29A      H1'  511   5.842   3.432   5.626
   29A       N9  512   5.972   3.597   5.634
   29A       C8  513   6.057   3.684   5.698
   29A       H8  514   6.120   3.655   5.781
   29A       N7  515   6.053   3.806   5.653
   29A       C5  516   5.968   3.797   5.542
   29A       C6  517   5.928   3.886   5.441
   29A       N6  518   5.964   4.013   5.430
   29A      H61  519   6.013   4.057   5.508
   29A      H62  520   5.926   4.071   5.358
   29A       N1  521   5.847   3.845   5.342
   29A       C2  522   5.806   3.719   5.344
   29A       H2  523   5.742   3.690   5.262
   29A       N3  524   5.835   3.624   5.432
   29A       C4  525   5.919   3.669   5.529
   29A      C3'  526   6.140   3.329   5.717
   29A      H3'  527   6.216   3.407   5.721
   29A      C2'  528   6.040   3.359   5.603
   29A     H2'1  529   6.092   3.408   5.521
   29A      O2'  530   5.969   3.245   5.557
   29A     HO'2  531   6.031   3.190   5.507
   29A      O3'  532   6.201   3.200   5.706
   30A        P  533   6.316   3.176   5.599
   30A      O1P  534   6.350   3.032   5.599
   30A      O2P  535   6.422   3.277   5.618
   30A      O5'  536   6.240   3.202   5.464
   30A      C5'  537   6.306   3.248   5.349
   30A     H5'1  538   6.385   3.180   5.318
   30A     H5'2  539   6.345   3.349   5.365
   30A      C4'  540   6.195   3.250   5.246
   30A      H4'  541   6.158   3.148   5.241
   30A      O4'  542   6.090   3.335   5.292
   30A      C1'  543   6.053   3.426   5.192
   30A      H1'  544   5.945   3.440   5.191
   30A       N9  545   6.116   3.557   5.218
   30A       C8  546   6.190   3.599   5.326
   30A       H8  547   6.225   3.532   5.403
   30A       N7  548   6.214   3.727   5.327
   30A       C5  549   6.151   3.773   5.211
   30A       C6  550   6.137   3.898   5.147
   30A       N6  551   6.189   4.011   5.190
   30A      H61  552   6.242   4.011   5.277
   30A      H62  553   6.171   4.096   5.139
   30A       N1  554   6.069   3.909   5.033
   30A       C2  555   6.013   3.800   4.982
   30A       H2  556   5.958   3.814   4.890
   30A       N3  557   6.019   3.676   5.029
   30A       C4  558   6.090   3.670   5.145
   30A      C3'  559   6.231   3.291   5.104
   30A      H3'  560   6.316   3.359   5.105
   30A      C2'  561   6.102   3.363   5.062
   30A     H2'1  562   6.122   3.438   4.986
   30A      O2'  563   5.998   3.275   5.020
   30A     HO'2  564   5.989   3.281   4.923
   30A      O3'  565   6.252   3.176   5.025
   31U        P  566   6.375   3.165   4.928
   31U      O1P  567   6.354   3.044   4.845
   31U      O2P  568   6.495   3.173   5.012
   31U      O5'  569   6.360   3.298   4.842
   31U      C5'  570   6.263   3.302   4.741
   31U     H5'1  571   6.169   3.262   4.780
   31U     H5'2  572   6.296   3.237   4.660
   31U      C4'  573   6.236   3.440   4.684
   31U      H4'  574   6.162   3.429   4.606
   31U      O4'  575   6.181   3.535   4.775
   31U      C1'  576   6.232   3.664   4.743
   31U      H1'  577   6.149   3.733   4.727
   31U       N1  578   6.317   3.718   4.854
   31U       C6  579   6.355   3.641   4.962
   31U       H6  580   6.333   3.536   4.961
   31U       C5  581   6.425   3.695   5.066
   31U       H5  582   6.456   3.634   5.149
   31U       C4  583   6.464   3.835   5.065
   31U       O4  584   6.532   3.892   5.148
   31U       N3  585   6.419   3.906   4.957
   31U       H3  586   6.444   4.003   4.957
   31U       C2  587   6.349   3.854   4.850
   31U       O2  588   6.317   3.929   4.758
   31U      C3'  589   6.359   3.503   4.619
   31U      H3'  590   6.446   3.496   4.685
   31U      C2'  591   6.306   3.645   4.609
   31U     H2'1  592   6.388   3.717   4.597
   31U      O2'  593   6.214   3.650   4.500
   31U     HO'2  594   6.264   3.623   4.422
   31U      O3'  595   6.381   3.451   4.489
   32G        P  596   6.528   3.430   4.434
   32G      O1P  597   6.517   3.359   4.305
   32G      O2P  598   6.612   3.376   4.543
   32G      O5'  599   6.575   3.580   4.405
   32G      C5'  600   6.525   3.651   4.293
   32G     H5'1  601   6.416   3.643   4.291
   32G     H5'2  602   6.565   3.605   4.202
   32G      C4'  603   6.562   3.800   4.289
   32G      H4'  604   6.509   3.845   4.205
   32G      O4'  605   6.526   3.871   4.408
   32G      C1'  606   6.618   3.978   4.430
   32G      H1'  607   6.567   4.075   4.427
   32G       N9  608   6.688   3.958   4.559
   32G       C8  609   6.740   3.839   4.605
   32G       H8  610   6.725   3.745   4.554
   32G       N7  611   6.810   3.851   4.714
   32G       C5  612   6.799   3.985   4.749
   32G       C6  613   6.849   4.056   4.863
   32G       O6  614   6.907   4.015   4.963
   32G       N1  615   6.828   4.192   4.856
   32G       H1  616   6.868   4.245   4.932
   32G       C2  617   6.767   4.253   4.751
   32G       N2  618   6.781   4.381   4.736
   32G      H21  619   6.819   4.437   4.810
   32G      H22  620   6.734   4.421   4.656
   32G       N3  621   6.711   4.189   4.648
   32G       C4  622   6.729   4.053   4.652
   32G      C3'  623   6.711   3.825   4.267
   32G      H3'  624   6.769   3.759   4.332
   32G      C2'  625   6.721   3.970   4.316
   32G     H2'1  626   6.821   3.994   4.350
   32G      O2'  627   6.682   4.056   4.211
   32G     HO'2  628   6.722   4.019   4.131
   32G      O3'  629   6.752   3.813   4.131
   33A        P  630   6.907   3.808   4.095
   33A      O1P  631   6.924   3.781   3.951
   33A      O2P  632   6.976   3.722   4.195
   33A      O5'  633   6.951   3.961   4.116
   33A      C5'  634   7.079   3.995   4.165
   33A     H5'1  635   7.157   3.951   4.103
   33A     H5'2  636   7.089   3.958   4.267
   33A      C4'  637   7.092   4.148   4.165
   33A      H4'  638   7.059   4.187   4.068
   33A      O4'  639   7.009   4.203   4.266
   33A      C1'  640   7.072   4.316   4.324
   33A      H1'  641   7.009   4.405   4.316
   33A       N9  642   7.099   4.287   4.468
   33A       C8  643   7.063   4.174   4.539
   33A       H8  644   7.022   4.087   4.491
   33A       N7  645   7.086   4.181   4.668
   33A       C5  646   7.137   4.311   4.685
   33A       C6  647   7.183   4.390   4.795
   33A       N6  648   7.193   4.352   4.921
   33A      H61  649   7.172   4.257   4.948
   33A      H62  650   7.223   4.421   4.989
   33A       N1  651   7.217   4.518   4.777
   33A       C2  652   7.216   4.567   4.653
   33A       H2  653   7.246   4.670   4.641
   33A       N3  654   7.182   4.503   4.542
   33A       C4  655   7.142   4.376   4.564
   33A      C3'  656   7.234   4.200   4.190
   33A      H3'  657   7.280   4.142   4.270
   33A      C2'  658   7.196   4.341   4.239
   33A     H2'1  659   7.275   4.389   4.297
   33A      O2'  660   7.151   4.426   4.134
   33A     HO'2  661   7.207   4.414   4.057
   33A      O3'  662   7.313   4.199   4.071
   34U        P  663   7.474   4.191   4.074
   34U      O1P  664   7.520   4.168   3.935
   34U      O2P  665   7.513   4.091   4.175
   34U      O5'  666   7.521   4.336   4.123
   34U      C5'  667   7.480   4.457   4.060
   34U     H5'1  668   7.374   4.455   4.038
   34U     H5'2  669   7.532   4.472   3.966
   34U      C4'  670   7.509   4.577   4.151
   34U      H4'  671   7.475   4.667   4.101
   34U      O4'  672   7.441   4.561   4.275
   34U      C1'  673   7.534   4.562   4.382
   34U      H1'  674   7.536   4.661   4.428
   34U       N1  675   7.504   4.457   4.483
   34U       C6  676   7.481   4.327   4.444
   34U       H6  677   7.478   4.304   4.339
   34U       C5  678   7.460   4.228   4.533
   34U       H5  679   7.439   4.127   4.501
   34U       C4  680   7.467   4.255   4.674
   34U       O4  681   7.452   4.172   4.761
   34U       N3  682   7.494   4.385   4.706
   34U       H3  683   7.501   4.406   4.804
   34U       C2  684   7.512   4.490   4.619
   34U       O2  685   7.531   4.603   4.664
   34U      C3'  686   7.658   4.590   4.182
   34U      H3'  687   7.719   4.532   4.112
   34U      C2'  688   7.671   4.532   4.322
   34U     H2'1  689   7.687   4.424   4.314
   34U      O2'  690   7.773   4.591   4.401
   34U     HO'2  691   7.860   4.565   4.365
   34U      O3'  692   7.693   4.726   4.182
   35A        P  693   7.759   4.787   4.053
   35A      O1P  694   7.678   4.754   3.935
   35A      O2P  695   7.902   4.749   4.057
   35A      O5'  696   7.744   4.941   4.081
   35A      C5'  697   7.616   5.003   4.086
   35A     H5'1  698   7.556   4.956   4.165
   35A     H5'2  699   7.565   4.990   3.991
   35A      C4'  700   7.629   5.153   4.117
   35A      H4'  701   7.533   5.201   4.097
   35A      O4'  702   7.662   5.169   4.254
   35A      C1'  703   7.792   5.224   4.270
   35A      H1'  704   7.783   5.331   4.291
   35A       N9  705   7.856   5.156   4.386
   35A       C8  706   7.827   5.031   4.436
   35A       H8  707   7.767   4.960   4.380
   35A       N7  708   7.870   5.008   4.557
   35A       C5  709   7.938   5.126   4.590
   35A       C6  710   8.009   5.170   4.705
   35A       N6  711   8.031   5.099   4.814
   35A      H61  712   8.005   5.001   4.810
   35A      H62  713   8.094   5.136   4.883
   35A       N1  714   8.064   5.291   4.709
   35A       C2  715   8.053   5.367   4.600
   35A       H2  716   8.099   5.464   4.605
   35A       N3  717   7.994   5.337   4.484
   35A       C4  718   7.934   5.215   4.485
   35A      C3'  719   7.739   5.221   4.035
   35A      H3'  720   7.757   5.167   3.942
   35A      C2'  721   7.858   5.209   4.132
   35A     H2'1  722   7.906   5.112   4.124
   35A      O2'  723   7.950   5.312   4.100
   35A     HO'2  724   7.897   5.380   4.056
   35A      O3'  725   7.702   5.357   4.011
   36U        P  726   7.700   5.419   3.864
   36U      O1P  727   7.823   5.377   3.795
   36U      O2P  728   7.671   5.564   3.877
   36U      O5'  729   7.575   5.351   3.789
   36U      C5'  730   7.439   5.379   3.822
   36U     H5'1  731   7.422   5.487   3.816
   36U     H5'2  732   7.421   5.348   3.924
   36U      C4'  733   7.334   5.306   3.734
   36U      H4'  734   7.238   5.357   3.745
   36U      O4'  735   7.376   5.310   3.597
   36U      C1'  736   7.412   5.177   3.561
   36U      H1'  737   7.327   5.131   3.510
   36U       N1  738   7.529   5.178   3.471
   36U       C6  739   7.656   5.200   3.521
   36U       H6  740   7.673   5.217   3.626
   36U       C5  741   7.764   5.194   3.439
   36U       H5  742   7.863   5.208   3.480
   36U       C4  743   7.750   5.163   3.300
   36U       O4  744   7.845   5.149   3.224
   36U       N3  745   7.621   5.156   3.254
   36U       H3  746   7.611   5.136   3.157
   36U       C2  747   7.508   5.154   3.334
   36U       O2  748   7.397   5.131   3.284
   36U      C3'  749   7.320   5.157   3.773
   36U      H3'  750   7.335   5.140   3.880
   36U      C2'  751   7.433   5.098   3.691
   36U     H2'1  752   7.527   5.124   3.739
   36U      O2'  753   7.427   4.957   3.671
   36U     HO'2  754   7.368   4.918   3.738
   36U      O3'  755   7.202   5.097   3.725
   37G        P  756   7.068   5.099   3.808
   37G      O1P  757   6.964   5.043   3.718
   37G      O2P  758   7.053   5.233   3.868
   37G      O5'  759   7.104   4.999   3.928
   37G      C5'  760   7.100   4.858   3.915
   37G     H5'1  761   7.175   4.825   3.845
   37G     H5'2  762   7.001   4.827   3.881
   37G      C4'  763   7.127   4.795   4.052
   37G      H4'  764   7.117   4.687   4.043
   37G      O4'  765   7.257   4.824   4.104
   37G      C1'  766   7.248   4.833   4.246
   37G      H1'  767   7.310   4.758   4.295
   37G       N9  768   7.291   4.967   4.291
   37G       C8  769   7.265   5.089   4.233
   37G       H8  770   7.201   5.101   4.147
   37G       N7  771   7.327   5.188   4.290
   37G       C5  772   7.395   5.129   4.396
   37G       C6  773   7.480   5.185   4.497
   37G       O6  774   7.517   5.301   4.513
   37G       N1  775   7.528   5.092   4.588
   37G       H1  776   7.590   5.124   4.661
   37G       C2  777   7.501   4.961   4.582
   37G       N2  778   7.553   4.888   4.676
   37G      H21  779   7.615   4.927   4.745
   37G      H22  780   7.538   4.788   4.670
   37G       N3  781   7.422   4.903   4.491
   37G       C4  782   7.372   4.993   4.399
   37G      C3'  783   7.025   4.841   4.157
   37G      H3'  784   7.004   4.948   4.150
   37G      C2'  785   7.103   4.808   4.284
   37G     H2'1  786   7.071   4.868   4.369
   37G      O2'  787   7.097   4.670   4.311
   37G     HO'2  788   7.029   4.633   4.253
   37G      O3'  789   6.909   4.763   4.142
   38G        P  790   6.772   4.791   4.216
   38G      O1P  791   6.695   4.667   4.195
   38G      O2P  792   6.720   4.921   4.171
   38G      O5'  793   6.814   4.799   4.371
   38G      C5'  794   6.825   4.683   4.453
   38G     H5'1  795   6.890   4.608   4.409
   38G     H5'2  796   6.727   4.638   4.464
   38G      C4'  797   6.876   4.721   4.592
   38G      H4'  798   6.877   4.634   4.656
   38G      O4'  799   7.004   4.781   4.594
   38G      C1'  800   7.008   4.877   4.699
   38G      H1'  801   7.080   4.848   4.777
   38G       N9  802   7.048   5.006   4.641
   38G       C8  803   6.991   5.076   4.538
   38G       H8  804   6.912   5.034   4.476
   38G       N7  805   7.037   5.196   4.523
   38G       C5  806   7.136   5.207   4.622
   38G       C6  807   7.225   5.314   4.658
   38G       O6  808   7.242   5.424   4.607
   38G       N1  809   7.305   5.283   4.764
   38G       H1  810   7.371   5.353   4.795
   38G       C2  811   7.310   5.163   4.823
   38G       N2  812   7.397   5.151   4.918
   38G      H21  813   7.438   5.236   4.957
   38G      H22  814   7.415   5.061   4.961
   38G       N3  815   7.236   5.058   4.790
   38G       C4  816   7.147   5.088   4.690
   38G      C3'  817   6.782   4.824   4.653
   38G      H3'  818   6.755   4.900   4.579
   38G      C2'  819   6.868   4.887   4.761
   38G     H2'1  820   6.837   4.990   4.779
   38G      O2'  821   6.861   4.811   4.881
   38G     HO'2  822   6.766   4.794   4.895
   38G      O3'  823   6.668   4.759   4.704
   39U        P  824   6.535   4.840   4.726
   39U      O1P  825   6.564   4.982   4.703
   39U      O2P  826   6.485   4.794   4.856
   39U      O5'  827   6.439   4.781   4.612
   39U      C5'  828   6.460   4.803   4.474
   39U     H5'1  829   6.564   4.830   4.455
   39U     H5'2  830   6.396   4.885   4.441
   39U      C4'  831   6.427   4.676   4.392
   39U      H4'  832   6.442   4.699   4.287
   39U      O4'  833   6.511   4.565   4.426
   39U      C1'  834   6.437   4.443   4.427
   39U      H1'  835   6.485   4.370   4.360
   39U       N1  836   6.427   4.384   4.563
   39U       C6  837   6.459   4.457   4.676
   39U       H6  838   6.484   4.561   4.669
   39U       C5  839   6.465   4.397   4.798
   39U       H5  840   6.493   4.454   4.886
   39U       C4  841   6.441   4.256   4.813
   39U       O4  842   6.459   4.192   4.915
   39U       N3  843   6.400   4.192   4.700
   39U       H3  844   6.379   4.094   4.709
   39U       C2  845   6.389   4.249   4.575
   39U       O2  846   6.346   4.181   4.482
   39U      C3'  847   6.283   4.626   4.409
   39U      H3'  848   6.254   4.636   4.514
   39U      C2'  849   6.299   4.478   4.374
   39U     H2'1  850   6.222   4.417   4.420
   39U      O2'  851   6.298   4.463   4.233
   39U     HO'2  852   6.224   4.520   4.206
   39U      O3'  853   6.189   4.685   4.320
   40U        P  854   6.041   4.709   4.374
   40U      O1P  855   5.960   4.766   4.265
   40U      O2P  856   6.055   4.786   4.499
   40U      O5'  857   5.989   4.559   4.404
   40U      C5'  858   5.938   4.479   4.298
   40U     H5'1  859   6.011   4.481   4.216
   40U     H5'2  860   5.846   4.524   4.260
   40U      C4'  861   5.911   4.332   4.334
   40U      H4'  862   5.905   4.277   4.240
   40U      O4'  863   6.017   4.277   4.411
   40U      C1'  864   5.967   4.179   4.501
   40U      H1'  865   6.008   4.081   4.474
   40U       N1  866   6.010   4.208   4.641
   40U       C6  867   6.078   4.324   4.670
   40U       H6  868   6.083   4.403   4.595
   40U       C5  869   6.133   4.344   4.792
   40U       H5  870   6.183   4.437   4.816
   40U       C4  871   6.123   4.245   4.897
   40U       O4  872   6.167   4.254   5.010
   40U       N3  873   6.055   4.133   4.859
   40U       H3  874   6.052   4.058   4.926
   40U       C2  875   5.995   4.108   4.739
   40U       O2  876   5.934   4.002   4.724
   40U      C3'  877   5.782   4.302   4.409
   40U      H3'  878   5.761   4.381   4.482
   40U      C2'  879   5.816   4.172   4.484
   40U     H2'1  880   5.766   4.171   4.581
   40U      O2'  881   5.785   4.051   4.413
   40U     HO'2  882   5.687   4.048   4.412
   40U      O3'  883   5.678   4.289   4.314
   41U        P  884   5.525   4.288   4.356
   41U      O1P  885   5.444   4.246   4.239
   41U      O2P  886   5.492   4.412   4.426
   41U      O5'  887   5.522   4.169   4.460
   41U      C5'  888   5.446   4.175   4.579
   41U     H5'1  889   5.342   4.194   4.554
   41U     H5'2  890   5.484   4.254   4.644
   41U      C4'  891   5.459   4.039   4.646
   41U      H4'  892   5.415   3.966   4.579
   41U      O4'  893   5.594   4.003   4.672
   41U      C1'  894   5.600   3.933   4.796
   41U      H1'  895   5.652   3.837   4.784
   41U       N1  896   5.672   4.011   4.901
   41U       C6  897   5.704   4.145   4.886
   41U       H6  898   5.677   4.198   4.796
   41U       C5  899   5.771   4.211   4.984
   41U       H5  900   5.794   4.316   4.973
   41U       C4  901   5.811   4.145   5.107
   41U       O4  902   5.869   4.197   5.201
   41U       N3  903   5.778   4.013   5.114
   41U       H3  904   5.809   3.962   5.196
   41U       C2  905   5.709   3.942   5.018
   41U       O2  906   5.683   3.824   5.037
   41U      C3'  907   5.385   4.030   4.779
   41U      H3'  908   5.405   4.118   4.839
   41U      C2'  909   5.454   3.907   4.836
   41U     H2'1  910   5.441   3.902   4.944
   41U      O2'  911   5.399   3.793   4.772
   41U     HO'2  912   5.304   3.812   4.773
   41U      O3'  913   5.247   4.005   4.761
   42G        P  914   5.144   4.040   4.876
   42G      O1P  915   5.012   4.016   4.818
   42G      O2P  916   5.180   4.175   4.923
   42G      O5'  917   5.175   3.930   4.988
   42G      C5'  918   5.107   3.807   4.976
   42G     H5'1  919   5.133   3.763   4.880
   42G     H5'2  920   5.000   3.825   4.978
   42G      C4'  921   5.138   3.705   5.085
   42G      H4'  922   5.090   3.612   5.057
   42G      O4'  923   5.278   3.682   5.099
   42G      C1'  924   5.309   3.664   5.237
   42G      H1'  925   5.360   3.569   5.254
   42G       N9  926   5.396   3.771   5.287
   42G       C8  927   5.408   3.899   5.241
   42G       H8  928   5.356   3.934   5.153
   42G       N7  929   5.485   3.974   5.315
   42G       C5  930   5.525   3.889   5.420
   42G       C6  931   5.601   3.912   5.540
   42G       O6  932   5.651   4.014   5.584
   42G       N1  933   5.614   3.800   5.621
   42G       H1  934   5.661   3.816   5.708
   42G       C2  935   5.558   3.680   5.592
   42G       N2  936   5.566   3.583   5.679
   42G      H21  937   5.610   3.596   5.770
   42G      H22  938   5.520   3.496   5.657
   42G       N3  939   5.484   3.656   5.485
   42G       C4  940   5.471   3.764   5.402
   42G      C3'  941   5.083   3.745   5.221
   42G      H3'  942   5.094   3.852   5.236
   42G      C2'  943   5.177   3.667   5.314
   42G     H2'1  944   5.187   3.720   5.409
   42G      O2'  945   5.141   3.531   5.335
   42G     HO'2  946   5.049   3.517   5.304
   42G      O3'  947   4.947   3.703   5.235
   43G        P  948   4.841   3.797   5.309
   43G      O1P  949   4.717   3.719   5.325
   43G      O2P  950   4.835   3.924   5.237
   43G      O5'  951   4.910   3.812   5.453
   43G      C5'  952   4.899   3.703   5.542
   43G     H5'1  953   4.923   3.612   5.488
   43G     H5'2  954   4.795   3.695   5.574
   43G      C4'  955   4.986   3.708   5.667
   43G      H4'  956   4.963   3.617   5.723
   43G      O4'  957   5.125   3.708   5.641
   43G      C1'  958   5.192   3.764   5.754
   43G      H1'  959   5.259   3.695   5.802
   43G       N9  960   5.268   3.884   5.717
   43G       C8  961   5.249   3.967   5.610
   43G       H8  962   5.179   3.944   5.531
   43G       N7  963   5.318   4.078   5.618
   43G       C5  964   5.385   4.068   5.740
   43G       C6  965   5.468   4.160   5.814
   43G       O6  966   5.502   4.275   5.791
   43G       N1  967   5.512   4.111   5.935
   43G       H1  968   5.576   4.169   5.986
   43G       C2  969   5.479   3.989   5.982
   43G       N2  970   5.520   3.960   6.102
   43G      H21  971   5.580   4.025   6.152
   43G      H22  972   5.485   3.874   6.142
   43G       N3  973   5.401   3.901   5.921
   43G       C4  974   5.358   3.947   5.799
   43G      C3'  975   4.965   3.827   5.759
   43G      H3'  976   4.971   3.921   5.703
   43G      C2'  977   5.084   3.807   5.852
   43G     H2'1  978   5.110   3.899   5.904
   43G      O2'  979   5.054   3.704   5.944
   43G     HO'2  980   4.958   3.711   5.952
   43G      O3'  981   4.845   3.816   5.832
   44G        P  982   4.783   3.943   5.905
   44G      O1P  983   4.655   3.894   5.957
   44G      O2P  984   4.788   4.058   5.815
   44G      O5'  985   4.883   3.971   6.025
   44G      C5'  986   4.870   3.900   6.144
   44G     H5'1  987   4.857   3.794   6.121
   44G     H5'2  988   4.781   3.935   6.197
   44G      C4'  989   4.994   3.919   6.231
   44G      H4'  990   4.998   3.842   6.307
   44G      O4'  991   5.116   3.913   6.156
   44G      C1'  992   5.199   4.019   6.201
   44G      H1'  993   5.301   3.983   6.215
   44G       N9  994   5.201   4.135   6.108
   44G       C8  995   5.130   4.159   5.992
   44G       H8  996   5.061   4.089   5.949
   44G       N7  997   5.153   4.275   5.938
   44G       C5  998   5.243   4.334   6.027
   44G       C6  999   5.304   4.463   6.026
   44G       O6 1000   5.294   4.551   5.941
   44G       N1 1001   5.387   4.485   6.134
   44G       H1 1002   5.445   4.568   6.128
   44G       C2 1003   5.418   4.391   6.226
   44G       N2 1004   5.507   4.422   6.317
   44G      H21 1005   5.551   4.514   6.316
   44G      H22 1006   5.530   4.351   6.384
   44G       N3 1007   5.367   4.269   6.229
   44G       C4 1008   5.277   4.247   6.128
   44G      C3' 1009   4.993   4.049   6.308
   44G      H3' 1010   4.955   4.130   6.246
   44G      C2' 1011   5.143   4.064   6.336
   44G     H2'1 1012   5.167   4.167   6.361
   44G      O2' 1013   5.194   3.974   6.435
   44G     HO'2 1014   5.140   3.986   6.514
   44G      O3' 1015   4.918   4.030   6.426
   45A        P 1016   4.816   4.140   6.477
   45A      O1P 1017   4.744   4.085   6.594
   45A      O2P 1018   4.741   4.198   6.363
   45A      O5' 1019   4.918   4.248   6.533
   45A      C5' 1020   4.990   4.215   6.650
   45A     H5'1 1021   5.034   4.117   6.639
   45A     H5'2 1022   4.921   4.213   6.735
   45A      C4' 1023   5.101   4.312   6.683
   45A      H4' 1024   5.147   4.278   6.776
   45A      O4' 1025   5.204   4.317   6.586
   45A      C1' 1026   5.245   4.453   6.575
   45A      H1' 1027   5.354   4.463   6.582
   45A       N9 1028   5.200   4.512   6.448
   45A       C8 1029   5.106   4.468   6.358
   45A       H8 1030   5.049   4.377   6.371
   45A       N7 1031   5.091   4.547   6.256
   45A       C5 1032   5.185   4.648   6.280
   45A       C6 1033   5.234   4.758   6.208
   45A       N6 1034   5.199   4.786   6.085
   45A      H61 1035   5.137   4.722   6.036
   45A      H62 1036   5.251   4.856   6.033
   45A       N1 1037   5.322   4.842   6.262
   45A       C2 1038   5.370   4.814   6.382
   45A       H2 1039   5.443   4.884   6.421
   45A       N3 1040   5.342   4.708   6.458
   45A       C4 1041   5.248   4.630   6.400
   45A      C3' 1042   5.050   4.453   6.706
   45A      H3' 1043   4.972   4.481   6.635
   45A      C2' 1044   5.178   4.532   6.686
   45A     H2'1 1045   5.157   4.635   6.658
   45A      O2' 1046   5.258   4.526   6.803
   45A     HO'2 1047   5.192   4.507   6.872
   45A      O3' 1048   5.010   4.462   6.840
   46G        P 1049   4.896   4.554   6.893
   46G      O1P 1050   4.909   4.537   7.039
   46G      O2P 1051   4.772   4.521   6.822
   46G      O5' 1052   4.945   4.696   6.847
   46G      C5' 1053   5.035   4.772   6.922
   46G     H5'1 1054   5.125   4.712   6.943
   46G     H5'2 1055   4.990   4.799   7.017
   46G      C4' 1056   5.078   4.898   6.849
   46G      H4' 1057   5.143   4.949   6.918
   46G      O4' 1058   5.151   4.870   6.729
   46G      C1' 1059   5.118   4.966   6.629
   46G      H1' 1060   5.207   5.007   6.582
   46G       N9 1061   5.033   4.904   6.524
   46G       C8 1062   4.948   4.797   6.534
   46G       H8 1063   4.936   4.740   6.625
   46G       N7 1064   4.884   4.767   6.425
   46G       C5 1065   4.927   4.865   6.334
   46G       C6 1066   4.892   4.892   6.197
   46G       O6 1067   4.816   4.832   6.123
   46G       N1 1068   4.955   5.001   6.144
   46G       H1 1069   4.931   5.029   6.051
   46G       C2 1070   5.043   5.077   6.212
   46G       N2 1071   5.092   5.178   6.147
   46G      H21 1072   5.077   5.188   6.046
   46G      H22 1073   5.157   5.240   6.195
   46G       N3 1074   5.082   5.056   6.337
   46G       C4 1075   5.019   4.949   6.394
   46G      C3' 1076   4.971   5.001   6.811
   46G      H3' 1077   4.880   4.953   6.774
   46G      C2' 1078   5.041   5.078   6.699
   46G     H2'1 1079   4.968   5.124   6.633
   46G      O2' 1080   5.136   5.175   6.746
   46G     HO'2 1081   5.090   5.231   6.811
   46G      O3' 1082   4.945   5.090   6.916
   47U        P 1083   4.836   5.061   7.028
   47U      O1P 1084   4.899   5.097   7.156
   47U      O2P 1085   4.778   4.926   7.007
   47U      O5' 1086   4.728   5.171   6.988
   47U      C5' 1087   4.760   5.309   6.999
   47U     H5'1 1088   4.860   5.327   6.958
   47U     H5'2 1089   4.760   5.338   7.104
   47U      C4' 1090   4.662   5.397   6.922
   47U      H4' 1091   4.688   5.500   6.941
   47U      O4' 1092   4.671   5.370   6.783
   47U      C1' 1093   4.542   5.336   6.736
   47U      H1' 1094   4.487   5.426   6.708
   47U       N1 1095   4.555   5.247   6.618
   47U       C6 1096   4.598   5.117   6.632
   47U       H6 1097   4.624   5.079   6.730
   47U       C5 1098   4.608   5.036   6.523
   47U       H5 1099   4.640   4.935   6.534
   47U       C4 1100   4.573   5.085   6.391
   47U       O4 1101   4.570   5.017   6.289
   47U       N3 1102   4.536   5.217   6.385
   47U       H3 1103   4.498   5.252   6.298
   47U       C2 1104   4.525   5.301   6.493
   47U       O2 1105   4.488   5.417   6.475
   47U      C3' 1106   4.515   5.375   6.962
   47U      H3' 1107   4.506   5.332   7.062
   47U      C2' 1108   4.470   5.275   6.856
   47U     H2'1 1109   4.513   5.178   6.880
   47U      O2' 1110   4.329   5.262   6.840
   47U     HO'2 1111   4.291   5.225   6.923
   47U      O3' 1112   4.449   5.500   6.951
   48U        P 1113   4.440   5.595   7.078
   48U      O1P 1114   4.381   5.726   7.047
   48U      O2P 1115   4.565   5.584   7.155
   48U      O5' 1116   4.328   5.511   7.156
   48U      C5' 1117   4.199   5.496   7.098
   48U     H5'1 1118   4.210   5.451   7.000
   48U     H5'2 1119   4.151   5.593   7.087
   48U      C4' 1120   4.112   5.404   7.184
   48U      H4' 1121   4.169   5.315   7.210
   48U      O4' 1122   4.067   5.465   7.303
   48U      C1' 1123   3.935   5.420   7.327
   48U      H1' 1124   3.937   5.315   7.359
   48U       N1 1125   3.870   5.504   7.431
   48U       C6 1126   3.839   5.636   7.407
   48U       H6 1127   3.865   5.680   7.311
   48U       C5 1128   3.784   5.713   7.504
   48U       H5 1129   3.763   5.817   7.485
   48U       C4 1130   3.756   5.661   7.637
   48U       O4 1131   3.709   5.723   7.731
   48U       N3 1132   3.789   5.528   7.653
   48U       H3 1133   3.794   5.493   7.747
   48U       C2 1134   3.847   5.448   7.557
   48U       O2 1135   3.872   5.331   7.585
   48U      C3' 1136   3.986   5.365   7.105
   48U      H3' 1137   3.986   5.403   7.003
   48U      C2' 1138   3.872   5.427   7.187
   48U     H2'1 1139   3.856   5.530   7.156
   48U      O2' 1140   3.756   5.347   7.169
   48U     HO'2 1141   3.795   5.266   7.131
   48U      O3' 1142   3.965   5.225   7.108
   49U        P 1143   4.052   5.128   7.020
   49U      O1P 1144   4.004   4.992   7.047
   49U      O2P 1145   4.194   5.162   7.040
   49U      O5' 1146   4.014   5.174   6.876
   49U      C5' 1147   3.884   5.161   6.824
   49U     H5'1 1148   3.813   5.217   6.884
   49U     H5'2 1149   3.855   5.056   6.821
   49U      C4' 1150   3.887   5.219   6.683
   49U      H4' 1151   3.791   5.200   6.637
   49U      O4' 1152   3.910   5.359   6.695
   49U      C1' 1153   4.002   5.394   6.593
   49U      H1' 1154   3.947   5.401   6.499
   49U       N1 1155   4.076   5.520   6.614
   49U       C6 1156   4.178   5.531   6.706
   49U       H6 1157   4.199   5.449   6.773
   49U       C5 1158   4.252   5.645   6.714
   49U       H5 1159   4.331   5.655   6.787
   49U       C4 1160   4.226   5.757   6.628
   49U       O4 1161   4.273   5.869   6.640
   49U       N3 1162   4.131   5.735   6.531
   49U       H3 1163   4.103   5.816   6.477
   49U       C2 1164   4.048   5.626   6.527
   49U       O2 1165   3.951   5.627   6.452
   49U      C3' 1166   4.000   5.157   6.597
   49U      H3' 1167   4.051   5.077   6.651
   49U      C2' 1168   4.095   5.275   6.576
   49U     H2'1 1169   4.172   5.273   6.652
   49U      O2' 1170   4.150   5.294   6.448
   49U     HO'2 1171   4.191   5.213   6.411
   49U      O3' 1172   3.950   5.110   6.474
   50C        P 1173   3.989   4.965   6.424
   50C      O1P 1174   3.897   4.874   6.495
   50C      O2P 1175   4.135   4.947   6.434
   50C      O5' 1176   3.944   4.984   6.272
   50C      C5' 1177   3.813   4.947   6.234
   50C     H5'1 1178   3.747   4.952   6.320
   50C     H5'2 1179   3.816   4.844   6.199
   50C      C4' 1180   3.752   5.036   6.127
   50C      H4' 1181   3.651   5.003   6.113
   50C      O4' 1182   3.741   5.172   6.163
   50C      C1' 1183   3.753   5.252   6.046
   50C      H1' 1184   3.667   5.318   6.036
   50C       N1 1185   3.876   5.336   6.049
   50C       C6 1186   3.959   5.335   6.160
   50C       H6 1187   3.950   5.259   6.236
   50C       C5 1188   4.054   5.431   6.173
   50C       H5 1189   4.119   5.431   6.258
   50C       C4 1190   4.067   5.527   6.071
   50C       N4 1191   4.163   5.614   6.080
   50C      H41 1192   4.223   5.609   6.161
   50C      H42 1193   4.179   5.681   6.006
   50C       N3 1194   3.993   5.525   5.961
   50C       C2 1195   3.895   5.433   5.949
   50C       O2 1196   3.821   5.440   5.851
   50C      C3' 1197   3.813   5.028   5.988
   50C      H3' 1198   3.922   5.035   5.995
   50C      C2' 1199   3.752   5.154   5.928
   50C     H2'1 1200   3.809   5.190   5.843
   50C      O2' 1201   3.616   5.132   5.891
   50C     HO'2 1202   3.618   5.072   5.814
   50C      O3' 1203   3.766   4.915   5.916
   51U        P 1204   3.871   4.827   5.837
   51U      O1P 1205   3.795   4.743   5.741
   51U      O2P 1206   3.954   4.762   5.938
   51U      O5' 1207   3.961   4.934   5.759
   51U      C5' 1208   3.923   4.988   5.634
   51U     H5'1 1209   3.817   5.013   5.637
   51U     H5'2 1210   3.938   4.911   5.558
   51U      C4' 1211   4.000   5.114   5.591
   51U      H4' 1212   3.953   5.148   5.499
   51U      O4' 1213   3.989   5.220   5.687
   51U      C1' 1214   4.105   5.305   5.679
   51U      H1' 1215   4.076   5.409   5.660
   51U       N1 1216   4.186   5.300   5.804
   51U       C6 1217   4.171   5.198   5.895
   51U       H6 1218   4.102   5.116   5.875
   51U       C5 1219   4.240   5.198   6.011
   51U       H5 1220   4.225   5.118   6.082
   51U       C4 1221   4.336   5.301   6.043
   51U       O4 1222   4.401   5.312   6.146
   51U       N3 1223   4.351   5.396   5.945
   51U       H3 1224   4.417   5.469   5.966
   51U       C2 1225   4.277   5.404   5.830
   51U       O2 1226   4.291   5.502   5.756
   51U      C3' 1227   4.150   5.101   5.558
   51U      H3' 1228   4.201   5.047   5.638
   51U      C2' 1229   4.185   5.252   5.560
   51U     H2'1 1230   4.291   5.268   5.574
   51U      O2' 1231   4.138   5.319   5.444
   51U     HO'2 1232   4.161   5.263   5.370
   51U      O3' 1233   4.177   5.045   5.429
   52A        P 1234   4.322   4.982   5.394
   52A      O1P 1235   4.320   4.924   5.259
   52A      O2P 1236   4.370   4.903   5.509
   52A      O5' 1237   4.415   5.110   5.390
   52A      C5' 1238   4.414   5.206   5.287
   52A     H5'1 1239   4.315   5.250   5.274
   52A     H5'2 1240   4.446   5.160   5.194
   52A      C4' 1241   4.514   5.315   5.327
   52A      H4' 1242   4.518   5.390   5.249
   52A      O4' 1243   4.483   5.378   5.452
   52A      C1' 1244   4.603   5.398   5.526
   52A      H1' 1245   4.613   5.503   5.556
   52A       N9 1246   4.604   5.313   5.648
   52A       C8 1247   4.533   5.199   5.677
   52A       H8 1248   4.468   5.150   5.607
   52A       N7 1249   4.548   5.154   5.798
   52A       C5 1250   4.642   5.242   5.853
   52A       C6 1251   4.707   5.254   5.978
   52A       N6 1252   4.692   5.178   6.084
   52A      H61 1253   4.629   5.099   6.084
   52A      H62 1254   4.738   5.206   6.170
   52A       N1 1255   4.794   5.350   6.001
   52A       C2 1256   4.819   5.436   5.903
   52A       H2 1257   4.889   5.514   5.928
   52A       N3 1258   4.768   5.439   5.780
   52A       C4 1259   4.678   5.338   5.762
   52A      C3' 1260   4.654   5.257   5.344
   52A      H3' 1261   4.650   5.162   5.397
   52A      C2' 1262   4.719   5.361   5.434
   52A     H2'1 1263   4.803   5.318   5.489
   52A      O2' 1264   4.760   5.474   5.358
   52A     HO'2 1265   4.809   5.436   5.283
   52A      O3' 1266   4.719   5.249   5.219
   53C        P 1267   4.799   5.119   5.183
   53C      O1P 1268   4.821   5.128   5.038
   53C      O2P 1269   4.726   5.004   5.236
   53C      O5' 1270   4.932   5.144   5.267
   53C      C5' 1271   5.039   5.231   5.232
   53C     H5'1 1272   5.000   5.329   5.205
   53C     H5'2 1273   5.093   5.190   5.147
   53C      C4' 1274   5.136   5.247   5.352
   53C      H4' 1275   5.212   5.321   5.326
   53C      O4' 1276   5.061   5.296   5.464
   53C      C1' 1277   5.107   5.240   5.586
   53C      H1' 1278   5.139   5.320   5.654
   53C       N1 1279   5.005   5.154   5.654
   53C       C6 1280   4.915   5.078   5.584
   53C       H6 1281   4.913   5.083   5.477
   53C       C5 1282   4.831   4.993   5.647
   53C       H5 1283   4.761   4.936   5.591
   53C       C4 1284   4.842   4.980   5.788
   53C       N4 1285   4.769   4.894   5.852
   53C      H41 1286   4.709   4.831   5.801
   53C      H42 1287   4.786   4.878   5.950
   53C       N3 1288   4.925   5.055   5.858
   53C       C2 1289   5.003   5.144   5.794
   53C       O2 1290   5.074   5.216   5.863
   53C      C3' 1291   5.208   5.120   5.402
   53C      H3' 1292   5.144   5.033   5.393
   53C      C2' 1293   5.232   5.159   5.549
   53C     H2'1 1294   5.243   5.071   5.611
   53C      O2' 1295   5.346   5.244   5.568
   53C     HO'2 1296   5.413   5.215   5.503
   53C      O3' 1297   5.341   5.093   5.361
   54C        P 1298   5.390   4.996   5.246
   54C      O1P 1299   5.286   4.900   5.206
   54C      O2P 1300   5.520   4.944   5.290
   54C      O5' 1301   5.412   5.106   5.130
   54C      C5' 1302   5.328   5.113   5.017
   54C     H5'1 1303   5.229   5.075   5.041
   54C     H5'2 1304   5.371   5.050   4.939
   54C      C4' 1305   5.312   5.255   4.959
   54C      H4' 1306   5.235   5.249   4.883
   54C      O4' 1307   5.272   5.352   5.056
   54C      C1' 1308   5.315   5.482   5.012
   54C      H1' 1309   5.228   5.546   4.995
   54C       N1 1310   5.406   5.549   5.109
   54C       C6 1311   5.480   5.476   5.198
   54C       H6 1312   5.465   5.369   5.203
   54C       C5 1313   5.571   5.537   5.278
   54C       H5 1314   5.627   5.479   5.350
   54C       C4 1315   5.588   5.677   5.265
   54C       N4 1316   5.671   5.736   5.347
   54C      H41 1317   5.708   5.682   5.426
   54C      H42 1318   5.684   5.836   5.345
   54C       N3 1319   5.517   5.750   5.181
   54C       C2 1320   5.422   5.688   5.105
   54C       O2 1321   5.352   5.757   5.029
   54C      C3' 1322   5.435   5.314   4.890
   54C      H3' 1323   5.523   5.302   4.953
   54C      C2' 1324   5.390   5.460   4.881
   54C     H2'1 1325   5.475   5.527   4.870
   54C      O2' 1326   5.299   5.476   4.772
   54C     HO'2 1327   5.350   5.445   4.695
   54C      O3' 1328   5.451   5.259   4.760
   55A        P 1329   5.592   5.254   4.687
   55A      O1P 1330   5.576   5.163   4.572
   55A      O2P 1331   5.691   5.227   4.791
   55A      O5' 1332   5.616   5.404   4.640
   55A      C5' 1333   5.545   5.463   4.533
   55A     H5'1 1334   5.438   5.443   4.544
   55A     H5'2 1335   5.579   5.419   4.439
   55A      C4' 1336   5.566   5.615   4.528
   55A      H4' 1337   5.498   5.661   4.456
   55A      O4' 1338   5.542   5.672   4.656
   55A      C1' 1339   5.627   5.784   4.675
   55A      H1' 1340   5.569   5.875   4.686
   55A       N9 1341   5.708   5.762   4.796
   55A       C8 1342   5.728   5.645   4.866
   55A       H8 1343   5.696   5.548   4.829
   55A       N7 1344   5.780   5.662   4.985
   55A       C5 1345   5.812   5.799   4.985
   55A       C6 1346   5.876   5.884   5.076
   55A       N6 1347   5.918   5.848   5.195
   55A      H61 1348   5.901   5.753   5.225
   55A      H62 1349   5.951   5.919   5.259
   55A       N1 1350   5.889   6.015   5.051
   55A       C2 1351   5.841   6.061   4.937
   55A       H2 1352   5.853   6.167   4.920
   55A       N3 1353   5.778   5.994   4.841
   55A       C4 1354   5.768   5.861   4.871
   55A      C3' 1355   5.709   5.654   4.493
   55A      H3' 1356   5.773   5.587   4.547
   55A      C2' 1357   5.716   5.795   4.551
   55A     H2'1 1358   5.818   5.823   4.577
   55A      O2' 1359   5.657   5.889   4.463
   55A     HO'2 1360   5.689   5.862   4.376
   55A      O3' 1361   5.738   5.650   4.353
   56A        P 1362   5.888   5.648   4.297
   56A      O1P 1363   5.873   5.636   4.151
   56A      O2P 1364   5.969   5.549   4.371
   56A      O5' 1365   5.948   5.793   4.331
   56A      C5' 1366   5.916   5.911   4.258
   56A     H5'1 1367   5.809   5.929   4.261
   56A     H5'2 1368   5.944   5.899   4.154
   56A      C4' 1369   5.989   6.033   4.316
   56A      H4' 1370   5.967   6.119   4.254
   56A      O4' 1371   5.941   6.062   4.447
   56A      C1' 1372   6.048   6.114   4.526
   56A      H1' 1373   6.023   6.211   4.570
   56A       N9 1374   6.085   6.020   4.634
   56A       C8 1375   6.071   5.884   4.636
   56A       H8 1376   6.031   5.827   4.553
   56A       N7 1377   6.107   5.828   4.747
   56A       C5 1378   6.151   5.936   4.825
   56A       C6 1379   6.198   5.949   4.957
   56A       N6 1380   6.208   5.849   5.042
   56A      H61 1381   6.192   5.756   5.006
   56A      H62 1382   6.245   5.865   5.135
   56A       N1 1383   6.237   6.069   5.005
   56A       C2 1384   6.231   6.171   4.922
   56A       H2 1385   6.267   6.265   4.961
   56A       N3 1386   6.187   6.176   4.796
   56A       C4 1387   6.145   6.053   4.754
   56A      C3' 1388   6.143   6.022   4.327
   56A      H3' 1389   6.170   5.924   4.365
   56A      C2' 1390   6.166   6.130   4.433
   56A     H2'1 1391   6.260   6.113   4.487
   56A      O2' 1392   6.164   6.259   4.376
   56A     HO'2 1393   6.233   6.257   4.309
   56A      O3' 1394   6.215   6.054   4.208
   57G        P 1395   6.371   6.018   4.194
   57G      O1P 1396   6.413   6.069   4.062
   57G      O2P 1397   6.389   5.876   4.227
   57G      O5' 1398   6.444   6.105   4.306
   57G      C5' 1399   6.477   6.241   4.287
   57G     H5'1 1400   6.388   6.296   4.256
   57G     H5'2 1401   6.552   6.250   4.209
   57G      C4' 1402   6.531   6.302   4.416
   57G      H4' 1403   6.536   6.410   4.401
   57G      O4' 1404   6.447   6.276   4.528
   57G      C1' 1405   6.525   6.265   4.647
   57G      H1' 1406   6.492   6.336   4.723
   57G       N9 1407   6.517   6.130   4.710
   57G       C8 1408   6.472   6.014   4.653
   57G       H8 1409   6.442   6.007   4.549
   57G       N7 1410   6.466   5.914   4.736
   57G       C5 1411   6.515   5.965   4.856
   57G       C6 1412   6.533   5.903   4.984
   57G       O6 1413   6.508   5.789   5.022
   57G       N1 1414   6.585   5.987   5.080
   57G       H1 1415   6.602   5.945   5.169
   57G       C2 1416   6.613   6.117   5.057
   57G       N2 1417   6.673   6.180   5.155
   57G      H21 1418   6.705   6.127   5.237
   57G      H22 1419   6.705   6.273   5.140
   57G       N3 1420   6.596   6.181   4.941
   57G       C4 1421   6.546   6.099   4.842
   57G      C3' 1422   6.670   6.253   4.456
   57G      H3' 1423   6.676   6.144   4.448
   57G      C2' 1424   6.667   6.299   4.603
   57G     H2'1 1425   6.740   6.246   4.664
   57G      O2' 1426   6.682   6.440   4.614
   57G     HO'2 1427   6.762   6.460   4.563
   57G      O3' 1428   6.772   6.319   4.381
   58A        P 1429   6.920   6.263   4.372
   58A      O1P 1430   6.998   6.361   4.292
   58A      O2P 1431   6.917   6.122   4.331
   58A      O5' 1432   6.974   6.272   4.521
   58A      C5' 1433   7.037   6.389   4.568
   58A     H5'1 1434   6.976   6.476   4.545
   58A     H5'2 1435   7.134   6.401   4.520
   58A      C4' 1436   7.056   6.387   4.719
   58A      H4' 1437   7.084   6.487   4.751
   58A      O4' 1438   6.936   6.350   4.787
   58A      C1' 1439   6.968   6.265   4.896
   58A      H1' 1440   6.920   6.300   4.987
   58A       N9 1441   6.931   6.123   4.873
   58A       C8 1442   6.892   6.060   4.757
   58A       H8 1443   6.890   6.107   4.660
   58A       N7 1444   6.854   5.936   4.773
   58A       C5 1445   6.880   5.913   4.908
   58A       C6 1446   6.871   5.801   4.992
   58A       N6 1447   6.828   5.684   4.952
   58A      H61 1448   6.786   5.678   4.860
   58A      H62 1449   6.806   5.614   5.022
   58A       N1 1450   6.905   5.806   5.122
   58A       C2 1451   6.949   5.922   5.167
   58A       H2 1452   6.977   5.924   5.272
   58A       N3 1453   6.965   6.036   5.101
   58A       C4 1454   6.928   6.025   4.970
   58A      C3' 1455   7.165   6.291   4.765
   58A      H3' 1456   7.159   6.197   4.710
   58A      C2' 1457   7.120   6.275   4.910
   58A     H2'1 1458   7.161   6.186   4.956
   58A      O2' 1459   7.152   6.391   4.985
   58A     HO'2 1460   7.227   6.427   4.937
   58A      O3' 1461   7.293   6.353   4.755
   59G        P 1462   7.424   6.265   4.728
   59G      O1P 1463   7.540   6.356   4.714
   59G      O2P 1464   7.390   6.169   4.622
   59G      O5' 1465   7.434   6.192   4.867
   59G      C5' 1466   7.481   6.263   4.979
   59G     H5'1 1467   7.429   6.357   4.988
   59G     H5'2 1468   7.588   6.281   4.967
   59G      C4' 1469   7.459   6.184   5.107
   59G      H4' 1470   7.479   6.250   5.192
   59G      O4' 1471   7.326   6.138   5.118
   59G      C1' 1472   7.325   6.007   5.173
   59G      H1' 1473   7.261   6.001   5.262
   59G       N9 1474   7.275   5.908   5.074
   59G       C8 1475   7.235   5.925   4.944
   59G       H8 1476   7.248   6.018   4.890
   59G       N7 1477   7.188   5.817   4.888
   59G       C5 1478   7.194   5.720   4.989
   59G       C6 1479   7.154   5.581   4.995
   59G       O6 1480   7.104   5.507   4.909
   59G       N1 1481   7.178   5.524   5.119
   59G       H1 1482   7.148   5.429   5.134
   59G       C2 1483   7.235   5.589   5.222
   59G       N2 1484   7.265   5.518   5.327
   59G      H21 1485   7.239   5.420   5.333
   59G      H22 1486   7.314   5.565   5.401
   59G       N3 1487   7.273   5.716   5.221
   59G       C4 1488   7.248   5.777   5.102
   59G      C3' 1489   7.552   6.064   5.118
   59G      H3' 1490   7.565   6.017   5.020
   59G      C2' 1491   7.470   5.977   5.213
   59G     H2'1 1492   7.494   5.872   5.198
   59G      O2' 1493   7.491   6.018   5.348
   59G     HO'2 1494   7.575   6.065   5.346
   59G      O3' 1495   7.676   6.106   5.174
   60C        P 1496   7.813   6.036   5.136
   60C      O1P 1497   7.920   6.109   5.206
   60C      O2P 1498   7.823   6.021   4.990
   60C      O5' 1499   7.798   5.889   5.197
   60C      C5' 1500   7.796   5.861   5.336
   60C     H5'1 1501   7.730   5.930   5.388
   60C     H5'2 1502   7.897   5.871   5.377
   60C      C4' 1503   7.745   5.717   5.357
   60C      H4' 1504   7.731   5.698   5.463
   60C      O4' 1505   7.622   5.697   5.289
   60C      C1' 1506   7.612   5.563   5.241
   60C      H1' 1507   7.529   5.513   5.291
   60C       N1 1508   7.593   5.559   5.093
   60C       C6 1509   7.658   5.646   5.009
   60C       H6 1510   7.734   5.713   5.049
   60C       C5 1511   7.627   5.651   4.878
   60C       H5 1512   7.678   5.721   4.814
   60C       C4 1513   7.519   5.571   4.832
   60C       N4 1514   7.470   5.585   4.712
   60C      H41 1515   7.494   5.665   4.655
   60C      H42 1516   7.395   5.525   4.678
   60C       N3 1517   7.466   5.476   4.907
   60C       C2 1518   7.508   5.463   5.036
   60C       O2 1519   7.470   5.365   5.100
   60C      C3' 1520   7.838   5.611   5.299
   60C      H3' 1521   7.877   5.645   5.203
   60C      C2' 1522   7.742   5.494   5.279
   60C     H2'1 1523   7.776   5.429   5.200
   60C      O2' 1524   7.721   5.419   5.397
   60C     HO'2 1525   7.807   5.383   5.420
   60C      O3' 1526   7.944   5.581   5.388
   61C        P 1527   8.070   5.499   5.341
   61C      O1P 1528   8.156   5.494   5.460
   61C      O2P 1529   8.119   5.557   5.215
   61C      O5' 1530   8.014   5.356   5.306
   61C      C5' 1531   7.998   5.256   5.403
   61C     H5'1 1532   7.932   5.292   5.482
   61C     H5'2 1533   8.095   5.232   5.447
   61C      C4' 1534   7.940   5.129   5.340
   61C      H4' 1535   7.917   5.058   5.419
   61C      O4' 1536   7.820   5.151   5.265
   61C      C1' 1537   7.819   5.064   5.151
   61C      H1' 1538   7.735   4.994   5.158
   61C       N1 1539   7.805   5.148   5.028
   61C       C6 1540   7.856   5.275   5.021
   61C       H6 1541   7.921   5.310   5.100
   61C       C5 1542   7.827   5.357   4.918
   61C       H5 1543   7.868   5.457   4.913
   61C       C4 1544   7.745   5.304   4.816
   61C       N4 1545   7.717   5.374   4.710
   61C      H41 1546   7.748   5.469   4.701
   61C      H42 1547   7.655   5.333   4.641
   61C       N3 1548   7.702   5.180   4.814
   61C       C2 1549   7.733   5.098   4.918
   61C       O2 1550   7.699   4.980   4.912
   61C      C3' 1551   8.040   5.063   5.246
   61C      H3' 1552   8.096   5.138   5.189
   61C      C2' 1553   7.949   4.983   5.154
   61C     H2'1 1554   7.993   4.971   5.055
   61C      O2' 1555   7.931   4.857   5.215
   61C     HO'2 1556   8.013   4.840   5.264
   61C      O3' 1557   8.123   4.976   5.321
   62U        P 1558   8.279   4.989   5.312
   62U      O1P 1559   8.337   4.898   5.412
   62U      O2P 1560   8.312   5.132   5.321
   62U      O5' 1561   8.307   4.934   5.165
   62U      C5' 1562   8.438   4.923   5.114
   62U     H5'1 1563   8.492   4.845   5.169
   62U     H5'2 1564   8.491   5.017   5.126
   62U      C4' 1565   8.434   4.887   4.964
   62U      H4' 1566   8.366   4.803   4.948
   62U      O4' 1567   8.389   5.002   4.892
   62U      C1' 1568   8.491   5.040   4.802
   62U      H1' 1569   8.476   4.987   4.708
   62U       N1 1570   8.491   5.186   4.776
   62U       C6 1571   8.459   5.276   4.875
   62U       H6 1572   8.452   5.242   4.978
   62U       C5 1573   8.428   5.405   4.844
   62U       H5 1574   8.398   5.474   4.921
   62U       C4 1575   8.431   5.452   4.707
   62U       O4 1576   8.402   5.565   4.671
   62U       N3 1577   8.468   5.359   4.615
   62U       H3 1578   8.449   5.380   4.519
   62U       C2 1579   8.497   5.227   4.642
   62U       O2 1580   8.510   5.150   4.547
   62U      C3' 1581   8.573   4.851   4.909
   62U      H3' 1582   8.635   4.808   4.987
   62U      C2' 1583   8.620   4.989   4.864
   62U     H2'1 1584   8.646   5.052   4.949
   62U      O2' 1585   8.727   4.988   4.772
   62U     HO'2 1586   8.713   4.915   4.708
   62U      O3' 1587   8.559   4.760   4.801
   63U        P 1588   8.654   4.631   4.786
   63U      O1P 1589   8.694   4.584   4.920
   63U      O2P 1590   8.757   4.665   4.685
   63U      O5' 1591   8.542   4.533   4.726
   63U      C5' 1592   8.439   4.477   4.807
   63U     H5'1 1593   8.395   4.557   4.868
   63U     H5'2 1594   8.484   4.404   4.875
   63U      C4' 1595   8.325   4.411   4.728
   63U      H4' 1596   8.269   4.347   4.796
   63U      O4' 1597   8.238   4.511   4.677
   63U      C1' 1598   8.221   4.492   4.537
   63U      H1' 1599   8.139   4.422   4.519
   63U       N1 1600   8.192   4.620   4.467
   63U       C6 1601   8.271   4.730   4.490
   63U       H6 1602   8.346   4.724   4.568
   63U       C5 1603   8.251   4.845   4.418
   63U       H5 1604   8.315   4.930   4.433
   63U       C4 1605   8.141   4.860   4.325
   63U       O4 1606   8.111   4.964   4.267
   63U       N3 1607   8.069   4.745   4.306
   63U       H3 1608   7.993   4.750   4.239
   63U       C2 1609   8.092   4.624   4.369
   63U       O2 1610   8.027   4.525   4.335
   63U      C3' 1611   8.373   4.325   4.609
   63U      H3' 1612   8.478   4.297   4.618
   63U      C2' 1613   8.352   4.426   4.495
   63U     H2'1 1614   8.433   4.500   4.495
   63U      O2' 1615   8.343   4.360   4.370
   63U     HO'2 1616   8.291   4.280   4.391
   63U      O3' 1617   8.290   4.211   4.584
   64A        P 1618   8.313   4.067   4.654
   64A      O1P 1619   8.457   4.035   4.649
   64A      O2P 1620   8.214   3.975   4.596
   64A      O5' 1621   8.277   4.097   4.807
   64A      C5' 1622   8.144   4.085   4.855
   64A     H5'1 1623   8.109   3.983   4.840
   64A     H5'2 1624   8.079   4.153   4.800
   64A      C4' 1625   8.141   4.118   5.004
   64A      H4' 1626   8.211   4.049   5.052
   64A      O4' 1627   8.183   4.251   5.030
   64A      C1' 1628   8.080   4.324   5.097
   64A      H1' 1629   8.120   4.363   5.191
   64A       N9 1630   8.038   4.439   5.012
   64A       C8 1631   8.072   4.572   5.026
   64A       H8 1632   8.127   4.609   5.111
   64A       N7 1633   8.036   4.648   4.927
   64A       C5 1634   7.965   4.560   4.844
   64A       C6 1635   7.897   4.571   4.720
   64A       N6 1636   7.888   4.677   4.643
   64A      H61 1637   7.934   4.764   4.669
   64A      H62 1638   7.826   4.664   4.564
   64A       N1 1639   7.829   4.466   4.671
   64A       C2 1640   7.829   4.353   4.739
   64A       H2 1641   7.772   4.271   4.696
   64A       N3 1642   7.898   4.324   4.848
   64A       C4 1643   7.962   4.433   4.897
   64A      C3' 1644   8.004   4.093   5.068
   64A      H3' 1645   7.930   4.063   4.994
   64A      C2' 1646   7.966   4.228   5.132
   64A     H2'1 1647   7.871   4.262   5.090
   64A      O2' 1648   7.955   4.221   5.272
   64A     HO'2 1649   7.919   4.133   5.291
   64A      O3' 1650   8.026   3.993   5.166
   65A        P 1651   7.922   3.877   5.196
   65A      O1P 1652   7.979   3.799   5.308
   65A      O2P 1653   7.881   3.813   5.068
   65A      O5' 1654   7.801   3.964   5.254
   65A      C5' 1655   7.787   3.984   5.393
   65A     H5'1 1656   7.882   4.017   5.436
   65A     H5'2 1657   7.761   3.888   5.439
   65A      C4' 1658   7.678   4.086   5.427
   65A      H4' 1659   7.684   4.104   5.535
   65A      O4' 1660   7.694   4.210   5.359
   65A      C1' 1661   7.571   4.244   5.297
   65A      H1' 1662   7.508   4.297   5.368
   65A       N9 1663   7.592   4.331   5.179
   65A       C8 1664   7.563   4.306   5.047
   65A       H8 1665   7.523   4.211   5.012
   65A       N7 1666   7.588   4.406   4.967
   65A       C5 1667   7.632   4.506   5.053
   65A       C6 1668   7.670   4.640   5.036
   65A       N6 1669   7.682   4.702   4.921
   65A      H61 1670   7.657   4.654   4.836
   65A      H62 1671   7.703   4.801   4.925
   65A       N1 1672   7.690   4.718   5.140
   65A       C2 1673   7.689   4.665   5.261
   65A       H2 1674   7.709   4.732   5.343
   65A       N3 1675   7.665   4.538   5.293
   65A       C4 1676   7.632   4.463   5.183
   65A      C3' 1677   7.538   4.037   5.394
   65A      H3' 1678   7.532   3.928   5.383
   65A      C2' 1679   7.502   4.112   5.265
   65A     H2'1 1680   7.550   4.062   5.181
   65A      O2' 1681   7.363   4.130   5.243
   65A     HO'2 1682   7.315   4.067   5.303
   65A      O3' 1683   7.464   4.085   5.503
   66A        P 1684   7.334   4.013   5.550
   66A      O1P 1685   7.380   3.907   5.641
   66A      O2P 1686   7.257   3.980   5.429
   66A      O5' 1687   7.269   4.138   5.630
   66A      C5' 1688   7.198   4.242   5.562
   66A     H5'1 1689   7.094   4.237   5.594
   66A     H5'2 1690   7.203   4.228   5.454
   66A      C4' 1691   7.251   4.383   5.596
   66A      H4' 1692   7.262   4.388   5.704
   66A      O4' 1693   7.376   4.412   5.532
   66A      C1' 1694   7.379   4.551   5.495
   66A      H1' 1695   7.473   4.598   5.526
   66A       N9 1696   7.358   4.572   5.349
   66A       C8 1697   7.312   4.482   5.254
   66A       H8 1698   7.285   4.380   5.279
   66A       N7 1699   7.303   4.532   5.134
   66A       C5 1700   7.350   4.663   5.149
   66A       C6 1701   7.375   4.769   5.059
   66A       N6 1702   7.352   4.762   4.929
   66A      H61 1703   7.309   4.677   4.893
   66A      H62 1704   7.382   4.835   4.867
   66A       N1 1705   7.417   4.888   5.103
   66A       C2 1706   7.435   4.901   5.234
   66A       H2 1707   7.470   4.998   5.266
   66A       N3 1708   7.419   4.810   5.330
   66A       C4 1709   7.377   4.691   5.280
   66A      C3' 1710   7.161   4.500   5.553
   66A      H3' 1711   7.133   4.490   5.448
   66A      C2' 1712   7.261   4.615   5.566
   66A     H2'1 1713   7.227   4.704   5.513
   66A      O2' 1714   7.296   4.647   5.701
   66A     HO'2 1715   7.217   4.683   5.743
   66A      O3' 1716   7.046   4.524   5.632
   67C        P 1717   6.899   4.490   5.576
   67C      O1P 1718   6.829   4.430   5.689
   67C      O2P 1719   6.912   4.412   5.451
   67C      O5' 1720   6.825   4.630   5.548
   67C      C5' 1721   6.869   4.725   5.454
   67C     H5'1 1722   6.783   4.783   5.420
   67C     H5'2 1723   6.913   4.674   5.369
   67C      C4' 1724   6.971   4.822   5.518
   67C      H4' 1725   7.021   4.768   5.598
   67C      O4' 1726   7.069   4.856   5.421
   67C      C1' 1727   7.102   4.994   5.437
   67C      H1' 1728   7.210   5.008   5.436
   67C       N1 1729   7.042   5.076   5.328
   67C       C6 1730   6.948   5.024   5.241
   67C       H6 1731   6.905   4.927   5.259
   67C       C5 1732   6.921   5.089   5.125
   67C       H5 1733   6.858   5.042   5.051
   67C       C4 1734   6.993   5.208   5.100
   67C       N4 1735   6.990   5.262   4.982
   67C      H41 1736   6.937   5.221   4.908
   67C      H42 1737   7.043   5.347   4.967
   67C       N3 1738   7.074   5.265   5.186
   67C       C2 1739   7.100   5.199   5.300
   67C       O2 1740   7.180   5.253   5.377
   67C      C3' 1741   6.918   4.952   5.582
   67C      H3' 1742   6.835   4.993   5.524
   67C      C2' 1743   7.044   5.037   5.572
   67C     H2'1 1744   7.020   5.143   5.574
   67C      O2' 1745   7.133   5.002   5.678
   67C     HO'2 1746   7.070   4.975   5.748
   67C      O3' 1747   6.888   4.939   5.719
   68U        P 1748   6.786   5.033   5.796
   68U      O1P 1749   6.792   4.990   5.937
   68U      O2P 1750   6.660   5.036   5.720
   68U      O5' 1751   6.850   5.179   5.784
   68U      C5' 1752   6.941   5.227   5.881
   68U     H5'1 1753   7.025   5.158   5.890
   68U     H5'2 1754   6.890   5.233   5.978
   68U      C4' 1755   6.996   5.366   5.847
   68U      H4' 1756   7.073   5.390   5.920
   68U      O4' 1757   7.058   5.371   5.718
   68U      C1' 1758   7.038   5.500   5.660
   68U      H1' 1759   7.135   5.545   5.637
   68U       N1 1760   6.957   5.494   5.533
   68U       C6 1761   6.886   5.382   5.497
   68U       H6 1762   6.875   5.300   5.568
   68U       C5 1763   6.830   5.371   5.373
   68U       H5 1764   6.778   5.281   5.345
   68U       C4 1765   6.839   5.477   5.275
   68U       O4 1766   6.793   5.475   5.161
   68U       N3 1767   6.907   5.587   5.320
   68U       H3 1768   6.914   5.664   5.255
   68U       C2 1769   6.964   5.603   5.444
   68U       O2 1770   7.015   5.712   5.473
   68U      C3' 1771   6.894   5.480   5.852
   68U      H3' 1772   6.801   5.451   5.802
   68U      C2' 1773   6.970   5.584   5.769
   68U     H2'1 1774   6.903   5.659   5.728
   68U      O2' 1775   7.069   5.644   5.853
   68U     HO'2 1776   7.029   5.645   5.942
   68U      O3' 1777   6.873   5.530   5.984
   69C        P 1778   6.741   5.615   6.023
   69C      O1P 1779   6.741   5.640   6.169
   69C      O2P 1780   6.624   5.554   5.960
   69C      O5' 1781   6.757   5.756   5.949
   69C      C5' 1782   6.845   5.858   5.993
   69C     H5'1 1783   6.943   5.815   6.015
   69C     H5'2 1784   6.805   5.904   6.084
   69C      C4' 1785   6.860   5.965   5.884
   69C      H4' 1786   6.940   6.033   5.914
   69C      O4' 1787   6.894   5.909   5.757
   69C      C1' 1788   6.834   5.984   5.651
   69C      H1' 1789   6.912   6.026   5.587
   69C       N1 1790   6.742   5.902   5.566
   69C       C6 1791   6.687   5.783   5.608
   69C       H6 1792   6.701   5.751   5.711
   69C       C5 1793   6.614   5.707   5.523
   69C       H5 1794   6.571   5.614   5.557
   69C       C4 1795   6.592   5.758   5.393
   69C       N4 1796   6.527   5.687   5.305
   69C      H41 1797   6.498   5.593   5.327
   69C      H42 1798   6.519   5.722   5.210
   69C       N3 1799   6.644   5.871   5.349
   69C       C2 1800   6.718   5.945   5.434
   69C       O2 1801   6.763   6.052   5.392
   69C      C3' 1802   6.733   6.047   5.860
   69C      H3' 1803   6.647   5.980   5.860
   69C      C2' 1804   6.761   6.099   5.719
   69C     H2'1 1805   6.668   6.125   5.667
   69C      O2' 1806   6.849   6.210   5.727
   69C     HO'2 1807   6.848   6.233   5.821
   69C      O3' 1808   6.718   6.152   5.955
   70U        P 1809   6.575   6.221   5.982
   70U      O1P 1810   6.595   6.327   6.085
   70U      O2P 1811   6.475   6.114   6.002
   70U      O5' 1812   6.550   6.290   5.841
   70U      C5' 1813   6.587   6.425   5.821
   70U     H5'1 1814   6.690   6.439   5.854
   70U     H5'2 1815   6.523   6.489   5.882
   70U      C4' 1816   6.578   6.469   5.675
   70U      H4' 1817   6.643   6.555   5.662
   70U      O4' 1818   6.614   6.368   5.581
   70U      C1' 1819   6.535   6.384   5.464
   70U      H1' 1820   6.599   6.400   5.377
   70U       N1 1821   6.450   6.262   5.438
   70U       C6 1822   6.426   6.164   5.532
   70U       H6 1823   6.454   6.181   5.636
   70U       C5 1824   6.369   6.046   5.496
   70U       H5 1825   6.350   5.969   5.569
   70U       C4 1826   6.331   6.019   5.359
   70U       O4 1827   6.286   5.914   5.315
   70U       N3 1828   6.348   6.124   5.275
   70U       H3 1829   6.313   6.110   5.181
   70U       C2 1830   6.399   6.246   5.309
   70U       O2 1831   6.394   6.337   5.226
   70U      C3' 1832   6.437   6.511   5.637
   70U      H3' 1833   6.364   6.437   5.672
   70U      C2' 1834   6.449   6.510   5.485
   70U     H2'1 1835   6.351   6.502   5.438
   70U      O2' 1836   6.518   6.629   5.445
   70U     HO'2 1837   6.492   6.694   5.513
   70U      O3' 1838   6.410   6.642   5.681
   71U        P 1839   6.264   6.683   5.725
   71U      O1P 1840   6.269   6.823   5.772
   71U      O2P 1841   6.207   6.573   5.807
   71U      O5' 1842   6.189   6.684   5.585
   71U      C5' 1843   6.194   6.796   5.499
   71U     H5'1 1844   6.298   6.818   5.474
   71U     H5'2 1845   6.151   6.883   5.548
   71U      C4' 1846   6.116   6.769   5.371
   71U      H4' 1847   6.125   6.856   5.307
   71U      O4' 1848   6.169   6.656   5.303
   71U      C1' 1849   6.062   6.589   5.237
   71U      H1' 1850   6.080   6.590   5.129
   71U       N1 1851   6.048   6.447   5.282
   71U       C6 1852   6.071   6.409   5.413
   71U       H6 1853   6.098   6.484   5.487
   71U       C5 1854   6.058   6.279   5.451
   71U       H5 1855   6.076   6.250   5.554
   71U       C4 1856   6.020   6.176   5.356
   71U       O4 1857   6.005   6.057   5.381
   71U       N3 1858   6.004   6.220   5.228
   71U       H3 1859   5.980   6.150   5.160
   71U       C2 1860   6.008   6.352   5.186
   71U       O2 1861   5.980   6.381   5.070
   71U      C3' 1862   5.967   6.742   5.394
   71U      H3' 1863   5.951   6.678   5.481
   71U      C2' 1864   5.935   6.668   5.264
   71U     H2'1 1865   5.849   6.603   5.276
   71U      O2' 1866   5.914   6.761   5.158
   71U     HO'2 1867   5.849   6.823   5.195
   71U      O3' 1868   5.892   6.863   5.403
   72G        P 1869   5.741   6.863   5.453
   72G      O1P 1870   5.698   7.004   5.456
   72G      O2P 1871   5.734   6.778   5.573
   72G      O5' 1872   5.664   6.787   5.333
   72G      C5' 1873   5.610   6.855   5.221
   72G     H5'1 1874   5.690   6.908   5.169
   72G     H5'2 1875   5.537   6.928   5.257
   72G      C4' 1876   5.538   6.761   5.124
   72G      H4' 1877   5.510   6.818   5.035
   72G      O4' 1878   5.616   6.649   5.082
   72G      C1' 1879   5.533   6.533   5.071
   72G      H1' 1880   5.536   6.492   4.969
   72G       N9 1881   5.585   6.429   5.163
   72G       C8 1882   5.642   6.446   5.286
   72G       H8 1883   5.654   6.542   5.333
   72G       N7 1884   5.685   6.335   5.341
   72G       C5 1885   5.642   6.237   5.252
   72G       C6 1886   5.643   6.094   5.262
   72G       O6 1887   5.690   6.024   5.352
   72G       N1 1888   5.579   6.029   5.159
   72G       H1 1889   5.572   5.929   5.164
   72G       C2 1890   5.527   6.094   5.052
   72G       N2 1891   5.477   6.020   4.957
   72G      H21 1892   5.462   5.921   4.973
   72G      H22 1893   5.451   6.066   4.873
   72G       N3 1894   5.527   6.226   5.035
   72G       C4 1895   5.583   6.293   5.140
   72G      C3' 1896   5.409   6.705   5.183
   72G      H3' 1897   5.423   6.685   5.290
   72G      C2' 1898   5.389   6.574   5.106
   72G     H2'1 1899   5.341   6.500   5.170
   72G      O2' 1900   5.314   6.593   4.986
   72G     HO'2 1901   5.232   6.642   5.010
   72G      O3' 1902   5.306   6.797   5.158
   73A        P 1903   5.172   6.791   5.242
   73A      O1P 1904   5.083   6.898   5.192
   73A      O2P 1905   5.202   6.777   5.385
   73A      O5' 1906   5.111   6.655   5.190
   73A      C5' 1907   4.999   6.600   5.255
   73A     H5'1 1908   4.914   6.667   5.242
   73A     H5'2 1909   5.019   6.586   5.361
   73A      C4' 1910   4.972   6.466   5.190
   73A      H4' 1911   4.975   6.477   5.082
   73A      O4' 1912   5.066   6.367   5.231
   73A      C1' 1913   4.999   6.243   5.250
   73A      H1' 1914   5.044   6.165   5.189
   73A       N9 1915   5.002   6.198   5.391
   73A       C8 1916   5.060   6.258   5.501
   73A       H8 1917   5.102   6.357   5.498
   73A       N7 1918   5.060   6.183   5.608
   73A       C5 1919   5.002   6.063   5.565
   73A       C6 1920   4.975   5.935   5.622
   73A       N6 1921   4.997   5.901   5.748
   73A      H61 1922   5.037   5.969   5.810
   73A      H62 1923   4.993   5.803   5.771
   73A       N1 1924   4.921   5.838   5.550
   73A       C2 1925   4.894   5.860   5.422
   73A       H2 1926   4.851   5.778   5.367
   73A       N3 1927   4.913   5.974   5.355
   73A       C4 1928   4.967   6.072   5.433
   73A      C3' 1929   4.836   6.412   5.230
   73A      H3' 1930   4.817   6.430   5.336
   73A      C2' 1931   4.856   6.264   5.202
   73A     H2'1 1932   4.784   6.203   5.256
   73A      O2' 1933   4.850   6.241   5.063
   73A     HO'2 1934   4.780   6.300   5.033
   73A      O3' 1935   4.737   6.465   5.145
   74U        P 1936   4.592   6.492   5.202
   74U      O1P 1937   4.510   6.552   5.095
   74U      O2P 1938   4.605   6.553   5.335
   74U      O5' 1939   4.544   6.342   5.222
   74U      C5' 1940   4.495   6.265   5.114
   74U     H5'1 1941   4.569   6.262   5.034
   74U     H5'2 1942   4.404   6.311   5.076
   74U      C4' 1943   4.464   6.122   5.159
   74U      H4' 1944   4.432   6.067   5.071
   74U      O4' 1945   4.579   6.055   5.214
   74U      C1' 1946   4.539   5.973   5.325
   74U      H1' 1947   4.572   5.870   5.309
   74U       N1 1948   4.591   6.020   5.458
   74U       C6 1949   4.620   6.153   5.481
   74U       H6 1950   4.612   6.225   5.401
   74U       C5 1951   4.663   6.196   5.602
   74U       H5 1952   4.686   6.300   5.619
   74U       C4 1953   4.681   6.105   5.713
   74U       O4 1954   4.724   6.137   5.823
   74U       N3 1955   4.648   5.974   5.685
   74U       H3 1956   4.665   5.907   5.759
   74U       C2 1957   4.607   5.926   5.562
   74U       O2 1958   4.590   5.806   5.548
   74U      C3' 1959   4.351   6.113   5.262
   74U      H3' 1960   4.358   6.193   5.336
   74U      C2' 1961   4.386   5.977   5.322
   74U     H2'1 1962   4.344   5.965   5.421
   74U      O2' 1963   4.338   5.878   5.232
   74U     HO'2 1964   4.261   5.922   5.192
   74U      O3' 1965   4.225   6.110   5.195
   75U        P 1966   4.087   6.143   5.268
   75U      O1P 1967   3.979   6.123   5.169
   75U      O2P 1968   4.102   6.274   5.332
   75U      O5' 1969   4.081   6.035   5.383
   75U      C5' 1970   4.036   5.903   5.362
   75U     H5'1 1971   4.089   5.857   5.279
   75U     H5'2 1972   3.930   5.904   5.339
   75U      C4' 1973   4.060   5.820   5.489
   75U      H4' 1974   4.032   5.716   5.469
   75U      O4' 1975   4.194   5.823   5.537
   75U      C1' 1976   4.193   5.814   5.680
   75U      H1' 1977   4.249   5.725   5.711
   75U       N1 1978   4.254   5.934   5.746
   75U       C6 1979   4.268   6.055   5.680
   75U       H6 1980   4.225   6.068   5.582
   75U       C5 1981   4.335   6.158   5.737
   75U       H5 1982   4.346   6.253   5.686
   75U       C4 1983   4.390   6.148   5.870
   75U       O4 1984   4.453   6.235   5.929
   75U       N3 1985   4.370   6.027   5.931
   75U       H3 1986   4.402   6.019   6.026
   75U       C2 1987   4.302   5.921   5.877
   75U       O2 1988   4.288   5.819   5.945
   75U      C3' 1989   3.975   5.869   5.607
   75U      H3' 1990   3.986   5.977   5.616
   75U      C2' 1991   4.046   5.798   5.722
   75U     H2'1 1992   4.024   5.844   5.818
   75U      O2' 1993   4.014   5.659   5.722
   75U     HO'2 1994   4.009   5.625   5.813
   75U      O3' 1995   3.840   5.831   5.593
   76A        P 1996   3.726   5.916   5.663
   76A      O1P 1997   3.594   5.863   5.619
   76A      O2P 1998   3.756   6.060   5.645
   76A      O5' 1999   3.747   5.888   5.817
   76A      C5' 2000   3.710   5.765   5.876
   76A     H5'1 2001   3.759   5.683   5.825
   76A     H5'2 2002   3.602   5.753   5.867
   76A      C4' 2003   3.748   5.763   6.024
   76A      H4' 2004   3.715   5.669   6.067
   76A      O4' 2005   3.887   5.776   6.047
   76A      C1' 2006   3.908   5.843   6.171
   76A      H1' 2007   3.960   5.779   6.243
   76A       N9 2008   3.987   5.965   6.144
   76A       C8 2009   3.983   6.044   6.032
   76A       H8 2010   3.919   6.022   5.947
   76A       N7 2011   4.064   6.146   6.036
   76A       C5 2012   4.123   6.135   6.162
   76A       C6 2013   4.218   6.210   6.234
   76A       N6 2014   4.283   6.313   6.187
   76A      H61 2015   4.263   6.343   6.092
   76A      H62 2016   4.351   6.361   6.244
   76A       N1 2017   4.252   6.178   6.359
   76A       C2 2018   4.196   6.070   6.412
   76A       H2 2019   4.224   6.051   6.514
   76A       N3 2020   4.109   5.987   6.356
   76A       C4 2021   4.075   6.026   6.230
   76A      C3' 2022   3.682   5.877   6.102
   76A      H3' 2023   3.687   5.971   6.046
   76A      C2' 2024   3.771   5.882   6.226
   76A     H2'1 2025   3.770   5.980   6.273
   76A      O2' 2026   3.725   5.783   6.314
   76A     HO'2 2027   3.635   5.762   6.281
   76A      O3' 2028   3.551   5.839   6.137
   77U        P 2029   3.440   5.948   6.166
   77U      O1P 2030   3.318   5.866   6.187
   77U      O2P 2031   3.449   6.042   6.053
   77U      O5' 2032   3.491   6.018   6.300
   77U      C5' 2033   3.456   5.970   6.428
   77U     H5'1 2034   3.472   5.862   6.434
   77U     H5'2 2035   3.350   5.991   6.443
   77U      C4' 2036   3.535   6.038   6.540
   77U      H4' 2037   3.512   5.989   6.635
   77U      O4' 2038   3.676   6.032   6.518
   77U      C1' 2039   3.740   6.146   6.575
   77U      H1' 2040   3.809   6.114   6.654
   77U       N1 2041   3.817   6.225   6.474
   77U       C6 2042   3.771   6.238   6.345
   77U       H6 2043   3.682   6.185   6.314
   77U       C5 2044   3.837   6.318   6.257
   77U       H5 2045   3.803   6.326   6.156
   77U       C4 2046   3.954   6.393   6.293
   77U       O4 2047   4.019   6.466   6.220
   77U       N3 2048   3.993   6.374   6.423
   77U       H3 2049   4.070   6.432   6.454
   77U       C2 2050   3.931   6.294   6.516
   77U       O2 2051   3.978   6.286   6.629
   77U      C3' 2052   3.504   6.187   6.558
   77U      H3' 2053   3.500   6.236   6.461
   77U      C2' 2054   3.629   6.230   6.636
   77U     H2'1 2055   3.649   6.337   6.625
   77U      O2' 2056   3.615   6.195   6.772
   77U     HO'2 2057   3.518   6.197   6.783
   77U      O3' 2058   3.385   6.206   6.634
   78G        P 2059   3.308   6.346   6.628
   78G      O1P 2060   3.190   6.341   6.717
   78G      O2P 2061   3.298   6.393   6.488
   78G      O5' 2062   3.415   6.437   6.702
   78G      C5' 2063   3.421   6.444   6.844
   78G     H5'1 2064   3.444   6.346   6.885
   78G     H5'2 2065   3.325   6.478   6.883
   78G      C4' 2066   3.528   6.544   6.885
   78G      H4' 2067   3.537   6.546   6.994
   78G      O4' 2068   3.655   6.509   6.830
   78G      C1' 2069   3.724   6.628   6.796
   78G      H1' 2070   3.818   6.634   6.851
   78G       N9 2071   3.759   6.642   6.653
   78G       C8 2072   3.697   6.594   6.540
   78G       H8 2073   3.613   6.526   6.544
   78G       N7 2074   3.748   6.639   6.428
   78G       C5 2075   3.848   6.728   6.470
   78G       C6 2076   3.937   6.815   6.398
   78G       O6 2077   3.953   6.830   6.278
   78G       N1 2078   4.015   6.896   6.480
   78G       H1 2079   4.079   6.958   6.434
   78G       C2 2080   4.012   6.892   6.615
   78G       N2 2081   4.087   6.978   6.677
   78G      H21 2082   4.140   7.048   6.624
   78G      H22 2083   4.090   6.977   6.776
   78G       N3 2084   3.936   6.809   6.686
   78G       C4 2085   3.855   6.731   6.608
   78G      C3' 2086   3.494   6.685   6.838
   78G      H3' 2087   3.452   6.681   6.737
   78G      C2' 2088   3.634   6.745   6.833
   78G     H2'1 2089   3.638   6.822   6.757
   78G      O2' 2090   3.676   6.796   6.958
   78G     HO'2 2091   3.605   6.858   6.983
   78G      O3' 2092   3.404   6.750   6.928
   79A        P 2093   3.339   6.889   6.886
   79A      O1P 2094   3.231   6.934   6.976
   79A      O2P 2095   3.315   6.893   6.741
   79A      O5' 2096   3.464   6.985   6.906
   79A      C5' 2097   3.492   7.053   7.025
   79A     H5'1 2098   3.513   6.983   7.105
   79A     H5'2 2099   3.405   7.113   7.052
   79A      C4' 2100   3.612   7.145   7.000
   79A      H4' 2101   3.645   7.188   7.094
   79A      O4' 2102   3.724   7.083   6.937
   79A      C1' 2103   3.782   7.175   6.844
   79A      H1' 2104   3.888   7.192   6.862
   79A       N9 2105   3.764   7.133   6.703
   79A       C8 2106   3.666   7.055   6.647
   79A       H8 2107   3.587   7.010   6.705
   79A       N7 2108   3.677   7.036   6.519
   79A       C5 2109   3.785   7.119   6.485
   79A       C6 2110   3.850   7.153   6.364
   79A       N6 2111   3.820   7.102   6.247
   79A      H61 2112   3.755   7.026   6.241
   79A      H62 2113   3.880   7.128   6.169
   79A       N1 2114   3.952   7.240   6.364
   79A       C2 2115   3.991   7.292   6.479
   79A       H2 2116   4.073   7.362   6.475
   79A       N3 2117   3.941   7.270   6.601
   79A       C4 2118   3.837   7.181   6.596
   79A      C3' 2119   3.568   7.258   6.908
   79A      H3' 2120   3.509   7.221   6.825
   79A      C2' 2121   3.705   7.305   6.858
   79A     H2'1 2122   3.696   7.354   6.762
   79A      O2' 2123   3.769   7.391   6.949
   79A     HO'2 2124   3.725   7.476   6.934
   79A      O3' 2125   3.497   7.353   6.985
   80A        P 2126   3.420   7.472   6.915
   80A      O1P 2127   3.353   7.549   7.021
   80A      O2P 2128   3.344   7.422   6.798
   80A      O5' 2129   3.538   7.559   6.855
   80A      C5' 2130   3.593   7.671   6.920
   80A     H5'1 2131   3.638   7.640   7.015
   80A     H5'2 2132   3.514   7.744   6.939
   80A      C4' 2133   3.700   7.732   6.830
   80A      H4' 2134   3.763   7.797   6.889
   80A      O4' 2135   3.783   7.632   6.770
   80A      C1' 2136   3.816   7.674   6.638
   80A      H1' 2137   3.924   7.677   6.621
   80A       N9 2138   3.758   7.584   6.537
   80A       C8 2139   3.661   7.489   6.550
   80A       H8 2140   3.605   7.475   6.641
   80A       N7 2141   3.637   7.419   6.442
   80A       C5 2142   3.721   7.480   6.349
   80A       C6 2143   3.745   7.462   6.211
   80A       N6 2144   3.680   7.373   6.141
   80A      H61 2145   3.612   7.318   6.192
   80A      H62 2146   3.709   7.348   6.048
   80A       N1 2147   3.839   7.532   6.147
   80A       C2 2148   3.904   7.624   6.218
   80A       H2 2149   3.979   7.679   6.163
   80A       N3 2150   3.889   7.657   6.346
   80A       C4 2151   3.796   7.579   6.406
   80A      C3' 2152   3.643   7.820   6.718
   80A      H3' 2153   3.553   7.775   6.674
   80A      C2' 2154   3.761   7.815   6.621
   80A     H2'1 2155   3.732   7.836   6.519
   80A      O2' 2156   3.860   7.905   6.667
   80A     HO'2 2157   3.809   7.972   6.715
   80A      O3' 2158   3.623   7.952   6.765
   81G        P 2159   3.508   8.048   6.708
   81G      O1P 2160   3.510   8.173   6.787
   81G      O2P 2161   3.383   7.972   6.707
   81G      O5' 2162   3.554   8.077   6.556
   81G      C5' 2163   3.644   8.182   6.526
   81G     H5'1 2164   3.725   8.179   6.599
   81G     H5'2 2165   3.591   8.277   6.540
   81G      C4' 2166   3.708   8.181   6.386
   81G      H4' 2167   3.781   8.262   6.386
   81G      O4' 2168   3.780   8.060   6.361
   81G      C1' 2169   3.769   8.028   6.222
   81G      H1' 2170   3.867   8.007   6.179
   81G       N9 2171   3.682   7.911   6.199
   81G       C8 2172   3.592   7.852   6.284
   81G       H8 2173   3.576   7.887   6.385
   81G       N7 2174   3.528   7.751   6.232
   81G       C5 2175   3.577   7.744   6.101
   81G       C6 2176   3.542   7.658   5.991
   81G       O6 2177   3.462   7.566   5.987
   81G       N1 2178   3.608   7.689   5.874
   81G       H1 2179   3.592   7.627   5.796
   81G       C2 2180   3.699   7.789   5.862
   81G       N2 2181   3.748   7.813   5.743
   81G      H21 2182   3.726   7.754   5.664
   81G      H22 2183   3.823   7.881   5.740
   81G       N3 2184   3.734   7.872   5.961
   81G       C4 2185   3.670   7.844   6.079
   81G      C3' 2186   3.617   8.207   6.264
   81G      H3' 2187   3.523   8.152   6.274
   81G      C2' 2188   3.706   8.149   6.153
   81G     H2'1 2189   3.646   8.119   6.067
   81G      O2' 2190   3.808   8.240   6.114
   81G     HO'2 2191   3.765   8.326   6.121
   81G      O3' 2192   3.598   8.346   6.243
   82U        P 2193   3.459   8.411   6.195
   82U      O1P 2194   3.472   8.557   6.210
   82U      O2P 2195   3.349   8.342   6.263
   82U      O5' 2196   3.452   8.375   6.040
   82U      C5' 2197   3.536   8.438   5.945
   82U     H5'1 2198   3.637   8.445   5.985
   82U     H5'2 2199   3.498   8.538   5.926
   82U      C4' 2200   3.543   8.360   5.812
   82U      H4' 2201   3.616   8.409   5.748
   82U      O4' 2202   3.584   8.224   5.830
   82U      C1' 2203   3.511   8.135   5.743
   82U      H1' 2204   3.580   8.079   5.680
   82U       N1 2205   3.425   8.037   5.818
   82U       C6 2206   3.399   8.053   5.953
   82U       H6 2207   3.435   8.142   6.003
   82U       C5 2208   3.331   7.959   6.023
   82U       H5 2209   3.315   7.974   6.129
   82U       C4 2210   3.278   7.840   5.962
   82U       O4 2211   3.203   7.758   6.014
   82U       N3 2212   3.308   7.827   5.830
   82U       H3 2213   3.265   7.747   5.786
   82U       C2 2214   3.379   7.919   5.754
   82U       O2 2215   3.401   7.893   5.636
   82U      C3' 2216   3.412   8.356   5.735
   82U      H3' 2217   3.332   8.343   5.806
   82U      C2' 2218   3.433   8.229   5.652
   82U     H2'1 2219   3.339   8.185   5.624
   82U      O2' 2220   3.512   8.260   5.538
   82U     HO'2 2221   3.477   8.342   5.500
   82U      O3' 2222   3.391   8.470   5.651
   83G        P 2223   3.243   8.518   5.610
   83G      O1P 2224   3.258   8.653   5.551
   83G      O2P 2225   3.153   8.495   5.725
   83G      O5' 2226   3.197   8.420   5.494
   83G      C5' 2227   3.196   8.460   5.358
   83G     H5'1 2228   3.296   8.491   5.328
   83G     H5'2 2229   3.127   8.544   5.348
   83G      C4' 2230   3.148   8.348   5.265
   83G      H4' 2231   3.156   8.385   5.163
   83G      O4' 2232   3.227   8.230   5.277
   83G      C1' 2233   3.141   8.116   5.265
   83G      H1' 2234   3.182   8.043   5.195
   83G       N9 2235   3.121   8.052   5.397
   83G       C8 2236   3.133   8.108   5.521
   83G       H8 2237   3.162   8.210   5.536
   83G       N7 2238   3.109   8.028   5.620
   83G       C5 2239   3.072   7.910   5.558
   83G       C6 2240   3.028   7.785   5.613
   83G       O6 2241   3.019   7.753   5.730
   83G       N1 2242   2.991   7.693   5.517
   83G       H1 2243   2.958   7.603   5.550
   83G       C2 2244   2.994   7.719   5.385
   83G       N2 2245   2.944   7.628   5.306
   83G      H21 2246   2.906   7.542   5.344
   83G      H22 2247   2.938   7.652   5.208
   83G       N3 2248   3.038   7.832   5.329
   83G       C4 2249   3.075   7.925   5.421
   83G      C3' 2250   3.004   8.301   5.289
   83G      H3' 2251   2.987   8.285   5.395
   83G      C2' 2252   3.007   8.168   5.214
   83G     H2'1 2253   2.925   8.102   5.245
   83G      O2' 2254   3.011   8.181   5.072
   83G     HO'2 2255   3.017   8.276   5.051
   83G      O3' 2256   2.903   8.387   5.240
   83G      H3T 2257   2.826   8.334   5.211
   84SOL     OW 2258   0.202   0.577   0.076
   84SOL    HW1 2259   0.156   0.623   0.149
   84SOL    HW2 2260   0.214   0.647   0.010
   85SOL     OW 2261   0.219   0.292   1.000
   85SOL    HW1 2262   0.249   0.266   1.089
   85SOL    HW2 2263   0.165   0.215   0.974
   86SOL     OW 2264   0.007   0.385   0.642
   86SOL    HW1 2265  11.055   0.377   0.721
   86SOL    HW2 2266  11.084   0.306   0.591
   87SOL     OW 2267   0.577   1.300   1.185
   87SOL    HW1 2268   0.490   1.300   1.143
   87SOL    HW2 2269   0.579   1.388   1.225
   88SOL     OW 2270   1.537   1.519   0.712
   88SOL    HW1 2271   1.500   1.494   0.799
   88SOL    HW2 2272   1.460   1.519   0.652
   89SOL     OW 2273   1.132   0.680   0.706
   89SOL    HW1 2274   1.160   0.771   0.686
   89SOL    HW2 2275   1.099   0.690   0.797
   90SOL     OW 2276   1.776   0.613   0.216
   90SOL    HW1 2277   1.725   0.623   0.135
   90SOL    HW2 2278   1.734   0.538   0.260
   91SOL     OW 2279   0.766   1.159   1.055
   91SOL    HW1 2280   0.692   1.202   1.101
   91SOL    HW2 2281   0.797   1.234   1.000
   92SOL     OW 2282   0.893   0.763   1.794
   92SOL    HW1 2283   0.869   0.825   1.864
   92SOL    HW2 2284   0.925   0.822   1.724
   93SOL     OW 2285   0.679   0.984   0.640
   93SOL    HW1 2286   0.752   0.980   0.704
   93SOL    HW2 2287   0.616   1.044   0.682
   94SOL     OW 2288   0.710   1.167   1.801
   94SOL    HW1 2289   0.755   1.247   1.833
   94SOL    HW2 2290   0.623   1.201   1.773
   95SOL     OW 2291   0.329   1.418   1.073
   95SOL    HW1 2292   0.253   1.381   1.025
   95SOL    HW2 2293   0.374   1.471   1.004
   96SOL     OW 2294   1.467   1.495   1.377
   96SOL    HW1 2295   1.522   1.576   1.386
   96SOL    HW2 2296   1.404   1.505   1.449
   97SOL     OW 2297   0.456   0.413   1.496
   97SOL    HW1 2298   0.529   0.351   1.483
   97SOL    HW2 2299   0.378   0.355   1.498
   98SOL     OW 2300   1.573   0.448   0.732
   98SOL    HW1 2301   1.483   0.462   0.697
   98SOL    HW2 2302   1.601   0.538   0.750
   99SOL     OW 2303   0.265   1.669   0.498
   99SOL    HW1 2304   0.258   1.757   0.539
   99SOL    HW2 2305   0.303   1.692   0.412
  100SOL     OW 2306   1.132   1.353   1.665
  100SOL    HW1 2307   1.183   1.344   1.747
  100SOL    HW2 2308   1.082   1.270   1.667
  101SOL     OW 2309   0.244   1.402   0.516
  101SOL    HW1 2310   0.251   1.500   0.518
  101SOL    HW2 2311   0.175   1.385   0.582
  102SOL     OW 2312   0.263   1.117   0.915
  102SOL    HW1 2313   0.245   1.031   0.956
  102SOL    HW2 2314   0.194   1.174   0.953
  103SOL     OW 2315   0.619   1.801   1.413
  103SOL    HW1 2316   0.539   1.777   1.464
  103SOL    HW2 2317   0.638   1.891   1.446
  104SOL     OW 2318   0.649   0.959   0.135
  104SOL    HW1 2319   0.582   1.014   0.094
  104SOL    HW2 2320   0.656   1.000   0.223
  105SOL     OW 2321   1.597   0.101   1.480
  105SOL    HW1 2322   1.615   0.158   1.404
  105SOL    HW2 2323   1.563   0.166   1.544
  106SOL     OW 2324   0.131   0.650   0.555
  106SOL    HW1 2325   0.104   0.559   0.575
  106SOL    HW2 2326   0.116   0.697   0.639
  107SOL     OW 2327   1.853   1.732   0.361
  107SOL    HW1 2328   1.910   1.714   0.438
  107SOL    HW2 2329   1.873   1.825   0.344
  108SOL     OW 2330   0.062   1.593   0.122
  108SOL    HW1 2331   0.046   1.504   0.157
  108SOL    HW2 2332   0.094   1.641   0.199
  109SOL     OW 2333   1.702   0.921   0.621
  109SOL    HW1 2334   1.789   0.895   0.587
  109SOL    HW2 2335   1.670   0.980   0.550
  110SOL     OW 2336   1.628   1.123   0.439
  110SOL    HW1 2337   1.699   1.153   0.379
  110SOL    HW2 2338   1.640   1.184   0.514
  111SOL     OW 2339   0.118   0.734   1.586
  111SOL    HW1 2340   0.202   0.780   1.597
  111SOL    HW2 2341   0.055   0.806   1.564
  112SOL     OW 2342   0.611   1.397   0.744
  112SOL    HW1 2343   0.572   1.307   0.750
  112SOL    HW2 2344   0.599   1.415   0.648
  113SOL     OW 2345   1.277   1.219   1.418
  113SOL    HW1 2346   1.312   1.154   1.354
  113SOL    HW2 2347   1.335   1.203   1.495
  114SOL     OW 2348   0.830   0.006   0.524
  114SOL    HW1 2349   0.861   0.096   0.498
  114SOL    HW2 2350   0.734   0.011   0.504
  115SOL     OW 2351   0.180   0.989   1.240
  115SOL    HW1 2352   0.265   0.943   1.226
  115SOL    HW2 2353   0.116   0.920   1.216
  116SOL     OW 2354   1.533   0.986   0.210
  116SOL    HW1 2355   1.454   0.935   0.237
  116SOL    HW2 2356   1.565   1.020   0.294
  117SOL     OW 2357   1.169   1.794   1.619
  117SOL    HW1 2358   1.181   1.857   1.546
  117SOL    HW2 2359   1.197   1.711   1.575
  118SOL     OW 2360   0.337   0.243   1.882
  118SOL    HW1 2361   0.386   0.326   1.881
  118SOL    HW2 2362   0.244   0.273   1.889
  119SOL     OW 2363   1.466   1.427   0.964
  119SOL    HW1 2364   1.404   1.445   1.038
  119SOL    HW2 2365   1.438   1.338   0.934
  120SOL     OW 2366   1.650   1.738   0.587
  120SOL    HW1 2367   1.642   1.695   0.500
  120SOL    HW2 2368   1.623   1.666   0.646
  121SOL     OW 2369   0.580   0.718   0.250
  121SOL    HW1 2370   0.605   0.798   0.201
  121SOL    HW2 2371   0.514   0.753   0.312
  122SOL     OW 2372   1.268   0.390   0.951
  122SOL    HW1 2373   1.185   0.338   0.959
  122SOL    HW2 2374   1.333   0.334   0.998
  123SOL     OW 2375   1.572   1.652   0.320
  123SOL    HW1 2376   1.666   1.673   0.313
  123SOL    HW2 2377   1.548   1.637   0.227
  124SOL     OW 2378   0.810   0.611   1.460
  124SOL    HW1 2379   0.778   0.588   1.550
  124SOL    HW2 2380   0.764   0.544   1.405
  125SOL     OW 2381   1.404   0.491   1.672
  125SOL    HW1 2382   1.405   0.539   1.756
  125SOL    HW2 2383   1.468   0.420   1.686
  126SOL     OW 2384   0.978   0.916   1.584
  126SOL    HW1 2385   1.029   0.840   1.547
  126SOL    HW2 2386   0.917   0.933   1.510
  127SOL     OW 2387   0.988   0.382   1.240
  127SOL    HW1 2388   0.899   0.400   1.275
  127SOL    HW2 2389   0.969   0.338   1.156
  128SOL     OW 2390   1.036   0.666   0.415
  128SOL    HW1 2391   1.057   0.682   0.508
  128SOL    HW2 2392   0.944   0.631   0.419
  129SOL     OW 2393   0.100   0.818   0.768
  129SOL    HW1 2394   0.175   0.800   0.827
  129SOL    HW2 2395   0.064   0.898   0.811
  130SOL     OW 2396   0.141   1.820   1.564
  130SOL    HW1 2397   0.138   1.807   1.661
  130SOL    HW2 2398   0.049   1.840   1.541
  131SOL     OW 2399   0.879   0.365   0.203
  131SOL    HW1 2400   0.917   0.419   0.132
  131SOL    HW2 2401   0.876   0.277   0.162
  132SOL     OW 2402   1.706   0.564   1.841
  132SOL    HW1 2403   1.668   0.646   1.801
  132SOL    HW2 2404   1.732   0.516   1.760
  133SOL     OW 2405   1.360   1.152   0.581
  133SOL    HW1 2406   1.438   1.143   0.525
  133SOL    HW2 2407   1.308   1.218   0.532
  134SOL     OW 2408   0.565   0.208   0.892
  134SOL    HW1 2409   0.574   0.217   0.989
  134SOL    HW2 2410   0.558   0.299   0.860
  135SOL     OW 2411   0.992   1.442   0.498
  135SOL    HW1 2412   0.958   1.515   0.442
  135SOL    HW2 2413   0.984   1.481   0.586
  136SOL     OW 2414   0.365   1.799   0.838
  136SOL    HW1 2415   0.382   1.703   0.844
  136SOL    HW2 2416   0.451   1.833   0.866
  137SOL     OW 2417   1.814   1.056   0.881
  137SOL    HW1 2418   1.760   1.034   0.804
  137SOL    HW2 2419   1.751   1.046   0.955
  138SOL     OW 2420   1.219   1.561   1.495
  138SOL    HW1 2421   1.202   1.494   1.563
  138SOL    HW2 2422   1.174   1.521   1.419
  139SOL     OW 2423   1.477   0.750   0.710
  139SOL    HW1 2424   1.470   0.716   0.801
  139SOL    HW2 2425   1.550   0.814   0.716
  140SOL     OW 2426   0.464   1.263   1.723
  140SOL    HW1 2427   0.440   1.265   1.628
  140SOL    HW2 2428   0.377   1.275   1.765
  141SOL     OW 2429   1.097   1.760   0.214
  141SOL    HW1 2430   1.053   1.704   0.280
  141SOL    HW2 2431   1.141   1.695   0.156
  142SOL     OW 2432   0.203   0.291   1.489
  142SOL    HW1 2433   0.120   0.339   1.496
  142SOL    HW2 2434   0.178   0.207   1.533
  143SOL     OW 2435   1.618   1.345   0.100
  143SOL    HW1 2436   1.574   1.428   0.077
  143SOL    HW2 2437   1.560   1.278   0.057
  144SOL     OW 2438   0.458   1.730   0.301
  144SOL    HW1 2439   0.496   1.776   0.378
  144SOL    HW2 2440   0.534   1.725   0.240
  145SOL     OW 2441   1.409   0.110   0.444
  145SOL    HW1 2442   1.401   0.082   0.351
  145SOL    HW2 2443   1.505   0.116   0.457
  146SOL     OW 2444   0.250   1.789   1.225
  146SOL    HW1 2445   0.298   1.713   1.262
  146SOL    HW2 2446   0.225   1.758   1.137
  147SOL     OW 2447   0.948   1.688   0.899
  147SOL    HW1 2448   1.034   1.645   0.905
  147SOL    HW2 2449   0.907   1.639   0.825
  148SOL     OW 2450   0.402   0.680   0.491
  148SOL    HW1 2451   0.413   0.583   0.487
  148SOL    HW2 2452   0.306   0.688   0.506
  149SOL     OW 2453   1.532   0.235   1.712
  149SOL    HW1 2454   1.539   0.244   1.810
  149SOL    HW2 2455   1.468   0.163   1.709
  150SOL     OW 2456   0.598   0.110   0.097
  150SOL    HW1 2457   0.691   0.088   0.114
  150SOL    HW2 2458   0.590   0.101   0.001
  151SOL     OW 2459   0.750   0.281   1.756
  151SOL    HW1 2460   0.831   0.227   1.751
  151SOL    HW2 2461   0.707   0.245   1.836
  152SOL     OW 2462   0.870   1.533   1.189
  152SOL    HW1 2463   0.865   1.498   1.098
  152SOL    HW2 2464   0.931   1.471   1.231
  153SOL     OW 2465   1.316   0.592   1.440
  153SOL    HW1 2466   1.362   0.558   1.520
  153SOL    HW2 2467   1.370   0.670   1.416
  154SOL     OW 2468   0.823   1.396   0.948
  154SOL    HW1 2469   0.908   1.387   0.900
  154SOL    HW2 2470   0.760   1.404   0.874
  155SOL     OW 2471   0.959   0.527   0.899
  155SOL    HW1 2472   0.929   0.505   0.808
  155SOL    HW2 2473   0.981   0.438   0.933
  156SOL     OW 2474   0.558   0.038   0.513
  156SOL    HW1 2475   0.469   0.033   0.551
  156SOL    HW2 2476   0.552   0.120   0.461
  157SOL     OW 2477   1.435   1.167   0.010
  157SOL    HW1 2478   1.470   1.103   0.074
  157SOL    HW2 2479   1.354   1.200   0.052
  158SOL     OW 2480   0.299   0.018   0.172
  158SOL    HW1 2481   0.308   0.097   0.114
  158SOL    HW2 2482   0.392   0.003   0.194
  159SOL     OW 2483   0.934   0.255   0.453
  159SOL    HW1 2484   0.911   0.303   0.372
  159SOL    HW2 2485   1.031   0.266   0.456
  160SOL     OW 2486   1.082   0.713   1.457
  160SOL    HW1 2487   1.016   0.643   1.469
  160SOL    HW2 2488   1.167   0.663   1.455
  161SOL     OW 2489   1.228   1.576   0.803
  161SOL    HW1 2490   1.227   1.641   0.731
  161SOL    HW2 2491   1.308   1.600   0.851
  162SOL     OW 2492   0.472   1.156   0.747
  162SOL    HW1 2493   0.396   1.144   0.808
  162SOL    HW2 2494   0.431   1.136   0.661
  163SOL     OW 2495   1.238   1.809   0.628
  163SOL    HW1 2496   1.289   1.876   0.579
  163SOL    HW2 2497   1.187   1.864   0.690
  164SOL     OW 2498   0.996   0.536   0.007
  164SOL    HW1 2499   0.975   0.631  11.097
  164SOL    HW2 2500   1.086   0.540   0.041
  165SOL     OW 2501   0.058   0.565   1.381
  165SOL    HW1 2502   0.150   0.556   1.352
  165SOL    HW2 2503   0.067   0.627   1.456
  166SOL     OW 2504   0.569   0.216   1.176
  166SOL    HW1 2505   0.604   0.167   1.251
  166SOL    HW2 2506   0.475   0.221   1.197
  167SOL     OW 2507   0.881   0.436   0.650
  167SOL    HW1 2508   0.833   0.498   0.593
  167SOL    HW2 2509   0.894   0.361   0.590
  168SOL     OW 2510   0.998   0.001   0.776
  168SOL    HW1 2511   0.957   0.042   0.699
  168SOL    HW2 2512   0.946  11.021   0.785
  169SOL     OW 2513   1.425   1.176   0.877
  169SOL    HW1 2514   1.350   1.115   0.886
  169SOL    HW2 2515   1.438   1.175   0.781
  170SOL     OW 2516   1.473   0.616   0.976
  170SOL    HW1 2517   1.418   0.536   0.981
  170SOL    HW2 2518   1.536   0.602   1.049
  171SOL     OW 2519   1.870   0.817   0.362
  171SOL    HW1 2520   1.909   0.760   0.430
  171SOL    HW2 2521   1.830   0.750   0.302
  172SOL     OW 2522   0.494   1.458   0.134
  172SOL    HW1 2523   0.418   1.432   0.190
  172SOL    HW2 2524   0.493   1.385   0.069
  173SOL     OW 2525   1.670   1.288   0.646
  173SOL    HW1 2526   1.765   1.295   0.665
  173SOL    HW2 2527   1.634   1.373   0.674
  174SOL     OW 2528   1.383   0.595   0.065
  174SOL    HW1 2529   1.351   0.565   0.152
  174SOL    HW2 2530   1.453   0.533   0.046
  175SOL     OW 2531   0.530   0.258   0.311
  175SOL    HW1 2532   0.550   0.200   0.236
  175SOL    HW2 2533   0.498   0.338   0.265
  176SOL     OW 2534   1.736   1.234   1.572
  176SOL    HW1 2535   1.826   1.199   1.570
  176SOL    HW2 2536   1.754   1.328   1.591
  177SOL     OW 2537   1.058   1.373   1.350
  177SOL    HW1 2538   0.979   1.338   1.394
  177SOL    HW2 2539   1.129   1.315   1.387
  178SOL     OW 2540   1.601   1.596   1.651
  178SOL    HW1 2541   1.611   1.639   1.565
  178SOL    HW2 2542   1.689   1.556   1.662
  179SOL     OW 2543   1.139   1.226   1.108
  179SOL    HW1 2544   1.064   1.249   1.163
  179SOL    HW2 2545   1.108   1.250   1.019
  180SOL     OW 2546   1.599   1.092   1.077
  180SOL    HW1 2547   1.605   1.159   1.148
  180SOL    HW2 2548   1.542   1.137   1.012
  181SOL     OW 2549   0.920   0.098   1.412
  181SOL    HW1 2550   0.936   0.078   1.318
  181SOL    HW2 2551   1.006   0.131   1.441
  182SOL     OW 2552   1.000   1.130   1.742
  182SOL    HW1 2553   0.907   1.146   1.761
  182SOL    HW2 2554   0.996   1.056   1.678
  183SOL     OW 2555   0.737   1.055   0.390
  183SOL    HW1 2556   0.711   1.018   0.477
  183SOL    HW2 2557   0.817   1.003   0.368
  184SOL     OW 2558   0.401   0.823   1.238
  184SOL    HW1 2559   0.472   0.824   1.304
  184SOL    HW2 2560   0.370   0.731   1.246
  185SOL     OW 2561   1.300   0.387   1.269
  185SOL    HW1 2562   1.304   0.462   1.332
  185SOL    HW2 2563   1.210   0.397   1.234
  186SOL     OW 2564   0.045   1.576   1.354
  186SOL    HW1 2565   0.014   1.656   1.309
  186SOL    HW2 2566   0.141   1.585   1.351
  187SOL     OW 2567   0.363   1.123   0.502
  187SOL    HW1 2568   0.365   1.202   0.447
  187SOL    HW2 2569   0.356   1.054   0.434
  188SOL     OW 2570   0.549   0.511   0.851
  188SOL    HW1 2571   0.574   0.572   0.779
  188SOL    HW2 2572   0.609   0.539   0.922
  189SOL     OW 2573   1.226   1.351   0.399
  189SOL    HW1 2574   1.272   1.432   0.428
  189SOL    HW2 2575   1.137   1.365   0.435
  190SOL     OW 2576   1.298   1.472   1.168
  190SOL    HW1 2577   1.358   1.472   1.245
  190SOL    HW2 2578   1.239   1.398   1.188
  191SOL     OW 2579   1.584   0.637   0.479
  191SOL    HW1 2580   1.541   0.673   0.558
  191SOL    HW2 2581   1.597   0.715   0.424
  192SOL     OW 2582   0.325   1.529   1.312
  192SOL    HW1 2583   0.320   1.479   1.227
  192SOL    HW2 2584   0.421   1.545   1.315
  193SOL     OW 2585   0.424   0.730   1.599
  193SOL    HW1 2586   0.491   0.769   1.541
  193SOL    HW2 2587   0.448   0.636   1.594
  194SOL     OW 2588   1.621   0.770   1.685
  194SOL    HW1 2589   1.532   0.809   1.680
  194SOL    HW2 2590   1.666   0.817   1.611
  195SOL     OW 2591   1.002   0.134   1.770
  195SOL    HW1 2592   1.053   0.215   1.757
  195SOL    HW2 2593   1.059   0.070   1.725
  196SOL     OW 2594   0.486   0.061   1.742
  196SOL    HW1 2595   0.427   0.010   1.686
  196SOL    HW2 2596   0.425   0.127   1.782
  197SOL     OW 2597   0.623   0.883   1.044
  197SOL    HW1 2598   0.639   0.979   1.038
  197SOL    HW2 2599   0.548   0.879   1.106
  198SOL     OW 2600   1.350   0.873   1.006
  198SOL    HW1 2601   1.265   0.834   0.979
  198SOL    HW2 2602   1.403   0.794   1.020
  199SOL     OW 2603   1.234   0.507   0.279
  199SOL    HW1 2604   1.242   0.439   0.349
  199SOL    HW2 2605   1.165   0.565   0.316
  200SOL     OW 2606   0.295   0.202   1.248
  200SOL    HW1 2607   0.255   0.242   1.328
  200SOL    HW2 2608   0.272   0.109   1.258
  201SOL     OW 2609   0.054   1.305   1.287
  201SOL    HW1 2610   0.115   1.257   1.345
  201SOL    HW2 2611   0.054   1.396   1.323
  202SOL     OW 2612   0.724   0.605   1.037
  202SOL    HW1 2613   0.810   0.591   0.993
  202SOL    HW2 2614   0.706   0.699   1.023
  203SOL     OW 2615   1.767   0.941   1.842
  203SOL    HW1 2616   1.707   0.883   1.791
  203SOL    HW2 2617   1.708   0.971   1.912
  204SOL     OW 2618   0.278   0.045   0.617
  204SOL    HW1 2619   0.273   0.142   0.630
  204SOL    HW2 2620   0.297   0.017   0.707
  205SOL     OW 2621   1.603   0.399   0.324
  205SOL    HW1 2622   1.624   0.332   0.390
  205SOL    HW2 2623   1.585   0.477   0.380
  206SOL     OW 2624   1.089   0.749   0.978
  206SOL    HW1 2625   1.055   0.768   1.068
  206SOL    HW2 2626   1.049   0.661   0.961
  207SOL     OW 2627   0.978   1.566   1.705
  207SOL    HW1 2628   0.963   1.618   1.624
  207SOL    HW2 2629   1.013   1.482   1.671
  208SOL     OW 2630   1.851   1.488   1.607
  208SOL    HW1 2631   1.873   1.518   1.517
  208SOL    HW2 2632   1.924   1.526   1.659
  209SOL     OW 2633   0.358   0.894   1.801
  209SOL    HW1 2634   0.440   0.906   1.851
  209SOL    HW2 2635   0.383   0.825   1.736
  210SOL     OW 2636   1.526   0.248   0.097
  210SOL    HW1 2637   1.448   0.201   0.131
  210SOL    HW2 2638   1.555   0.301   0.173
  211SOL     OW 2639   1.292   0.841   0.017
  211SOL    HW1 2640   1.328   0.751   0.032
  211SOL    HW2 2641   1.307   0.853  11.024
  212SOL     OW 2642   1.061   1.360   0.845
  212SOL    HW1 2643   1.080   1.281   0.789
  212SOL    HW2 2644   1.130   1.424   0.820
  213SOL     OW 2645   0.285   0.824   0.965
  213SOL    HW1 2646   0.371   0.849   0.931
  213SOL    HW2 2647   0.302   0.738   1.005
  214SOL     OW 2648   0.334   0.538   0.999
  214SOL    HW1 2649   0.294   0.449   0.987
  214SOL    HW2 2650   0.410   0.532   0.937
  215SOL     OW 2651   1.164   0.375   1.694
  215SOL    HW1 2652   1.115   0.429   1.759
  215SOL    HW2 2653   1.249   0.423   1.690
  216SOL     OW 2654   1.172   0.222   1.475
  216SOL    HW1 2655   1.172   0.285   1.550
  216SOL    HW2 2656   1.196   0.279   1.400
  217SOL     OW 2657  11.090   1.334   0.223
  217SOL    HW1 2658  11.018   1.321   0.161
  217SOL    HW2 2659   0.001   1.243   0.257
  218SOL     OW 2660   0.125   1.798   0.952
  218SOL    HW1 2661   0.085   1.732   0.893
  218SOL    HW2 2662   0.211   1.813   0.906
  219SOL     OW 2663   0.489   1.568   0.912
  219SOL    HW1 2664   0.561   1.635   0.916
  219SOL    HW2 2665   0.528   1.501   0.853
  220SOL     OW 2666   0.958   0.774   1.218
  220SOL    HW1 2667   1.010   0.754   1.298
  220SOL    HW2 2668   0.867   0.766   1.249
  221SOL     OW 2669   0.007   0.547   1.074
  221SOL    HW1 2670   0.097   0.527   1.046
  221SOL    HW2 2671   0.018   0.554   1.170
  222SOL     OW 2672   0.213   0.534   1.742
  222SOL    HW1 2673   0.250   0.478   1.673
  222SOL    HW2 2674   0.171   0.604   1.688
  223SOL     OW 2675   1.387   0.909   1.646
  223SOL    HW1 2676   1.408   1.004   1.643
  223SOL    HW2 2677   1.370   0.889   1.552
  224SOL     OW 2678   0.792   0.572   0.389
  224SOL    HW1 2679   0.813   0.500   0.326
  224SOL    HW2 2680   0.723   0.622   0.341
  225SOL     OW 2681   1.647   0.617   1.203
  225SOL    HW1 2682   1.621   0.541   1.257
  225SOL    HW2 2683   1.732   0.588   1.165
  226SOL     OW 2684   0.268   1.540   1.724
  226SOL    HW1 2685   0.236   1.617   1.774
  226SOL    HW2 2686   0.246   1.465   1.782
  227SOL     OW 2687   0.696   0.462   1.263
  227SOL    HW1 2688   0.649   0.385   1.228
  227SOL    HW2 2689   0.705   0.519   1.184
  228SOL     OW 2690   0.910   1.694   1.473
  228SOL    HW1 2691   0.893   1.660   1.384
  228SOL    HW2 2692   0.906   1.790   1.461
  229SOL     OW 2693   0.455   0.489   0.182
  229SOL    HW1 2694   0.513   0.565   0.204
  229SOL    HW2 2695   0.370   0.535   0.171
  230SOL     OW 2696   0.174   1.127   1.485
  230SOL    HW1 2697   0.173   1.071   1.565
  230SOL    HW2 2698   0.174   1.062   1.411
  231SOL     OW 2699   1.317   1.040   1.222
  231SOL    HW1 2700   1.336   0.985   1.143
  231SOL    HW2 2701   1.251   1.102   1.187
  232SOL     OW 2702   1.311   0.849   0.301
  232SOL    HW1 2703   1.225   0.829   0.339
  232SOL    HW2 2704   1.293   0.848   0.206
  233SOL     OW 2705   1.747   1.753   1.119
  233SOL    HW1 2706   1.826   1.771   1.065
  233SOL    HW2 2707   1.740   1.655   1.108
  234SOL     OW 2708   1.243   1.727   1.117
  234SOL    HW1 2709   1.329   1.749   1.079
  234SOL    HW2 2710   1.251   1.631   1.133
  235SOL     OW 2711   0.080   1.291   1.019
  235SOL    HW1 2712   0.073   1.292   1.117
  235SOL    HW2 2713   0.019   1.221   0.994
  236SOL     OW 2714   0.680   1.642   1.738
  236SOL    HW1 2715   0.629   1.724   1.731
  236SOL    HW2 2716   0.754   1.661   1.679
  237SOL     OW 2717   0.883   0.103   0.087
  237SOL    HW1 2718   0.944   0.071   0.020
  237SOL    HW2 2719   0.916   0.052   0.164
  238SOL     OW 2720   1.701   0.116   0.497
  238SOL    HW1 2721   1.780   0.124   0.440
  238SOL    HW2 2722   1.729   0.054   0.565
  239SOL     OW 2723   1.356   1.574   0.487
  239SOL    HW1 2724   1.428   1.585   0.422
  239SOL    HW2 2725   1.322   1.664   0.494
  240SOL     OW 2726   0.168   1.783   1.840
  240SOL    HW1 2727   0.117   1.717   1.892
  240SOL    HW2 2728   0.209   1.834   1.913
  241SOL     OW 2729   1.255   0.913   0.654
  241SOL    HW1 2730   1.335   0.859   0.669
  241SOL    HW2 2731   1.294   0.996   0.620
  242SOL     OW 2732   0.803   1.252   1.432
  242SOL    HW1 2733   0.771   1.304   1.509
  242SOL    HW2 2734   0.732   1.268   1.367
  243SOL     OW 2735   0.694   1.626   0.173
  243SOL    HW1 2736   0.698   1.638   0.077
  243SOL    HW2 2737   0.624   1.557   0.179
  244SOL     OW 2738   1.618   1.713   1.386
  244SOL    HW1 2739   1.667   1.732   1.305
  244SOL    HW2 2740   1.603   1.802   1.424
  245SOL     OW 2741   1.854   0.121   0.962
  245SOL    HW1 2742   1.878   0.055   0.894
  245SOL    HW2 2743   1.779   0.167   0.919
  246SOL     OW 2744   0.269   0.298   0.710
  246SOL    HW1 2745   0.190   0.348   0.686
  246SOL    HW2 2746   0.272   0.309   0.807
  247SOL     OW 2747   1.215   1.585   0.048
  247SOL    HW1 2748   1.210   1.488   0.057
  247SOL    HW2 2749   1.159   1.603  11.071
  248SOL     OW 2750   0.804   0.987   1.390
  248SOL    HW1 2751   0.829   0.998   1.297
  248SOL    HW2 2752   0.812   1.079   1.423
  249SOL     OW 2753   0.945   0.920   0.302
  249SOL    HW1 2754   0.989   0.946   0.219
  249SOL    HW2 2755   0.969   0.827   0.312
  250SOL     OW 2756   1.503   1.595   0.047
  250SOL    HW1 2757   1.406   1.601   0.049
  250SOL    HW2 2758   1.526   1.622  11.059
  251SOL     OW 2759   0.388   1.280   1.468
  251SOL    HW1 2760   0.357   1.365   1.433
  251SOL    HW2 2761   0.309   1.223   1.463
  252SOL     OW 2762   1.600   1.298   1.266
  252SOL    HW1 2763   1.652   1.280   1.346
  252SOL    HW2 2764   1.539   1.367   1.300
  253SOL     OW 2765   1.062   1.114   0.736
  253SOL    HW1 2766   0.981   1.066   0.760
  253SOL    HW2 2767   1.112   1.045   0.689
  254SOL     OW 2768   1.034   0.256   0.966
  254SOL    HW1 2769   1.017   0.212   0.881
  254SOL    HW2 2770   1.016   0.183   1.027
  255SOL     OW 2771   0.606   1.472   0.483
  255SOL    HW1 2772   0.660   1.430   0.413
  255SOL    HW2 2773   0.530   1.507   0.435
  256SOL     OW 2774   1.708   0.366   1.379
  256SOL    HW1 2775   1.759   0.448   1.368
  256SOL    HW2 2776   1.760   0.303   1.325
  257SOL     OW 2777   0.252   1.389   0.248
  257SOL    HW1 2778   0.159   1.363   0.229
  257SOL    HW2 2779   0.252   1.389   0.345
  258SOL     OW 2780   0.130   1.001   1.737
  258SOL    HW1 2781   0.067   0.945   1.784
  258SOL    HW2 2782   0.216   0.964   1.767
  259SOL     OW 2783   0.678   0.223   1.488
  259SOL    HW1 2784   0.760   0.177   1.465
  259SOL    HW2 2785   0.696   0.252   1.580
  260SOL     OW 2786   0.061   0.348   0.076
  260SOL    HW1 2787   0.040   0.337  11.083
  260SOL    HW2 2788   0.111   0.433   0.076
  261SOL     OW 2789   1.448   0.849   1.383
  261SOL    HW1 2790   1.413   0.918   1.323
  261SOL    HW2 2791   1.542   0.871   1.387
  262SOL     OW 2792   0.093   0.141   0.323
  262SOL    HW1 2793   0.075   0.208   0.255
  262SOL    HW2 2794   0.175   0.100   0.291
  263SOL     OW 2795   1.194   1.313   0.121
  263SOL    HW1 2796   1.097   1.310   0.107
  263SOL    HW2 2797   1.201   1.313   0.218
  264SOL     OW 2798   0.614   0.793   1.413
  264SOL    HW1 2799   0.665   0.876   1.416
  264SOL    HW2 2800   0.686   0.729   1.430
  265SOL     OW 2801   1.512   1.766   0.960
  265SOL    HW1 2802   1.547   1.806   0.879
  265SOL    HW2 2803   1.589   1.767   1.018
  266SOL     OW 2804   0.719   0.568   1.709
  266SOL    HW1 2805   0.776   0.629   1.760
  266SOL    HW2 2806   0.734   0.482   1.749
  267SOL     OW 2807   1.459   1.178   1.617
  267SOL    HW1 2808   1.451   1.186   1.715
  267SOL    HW2 2809   1.553   1.202   1.604
  268SOL     OW 2810   0.394   1.729   1.564
  268SOL    HW1 2811   0.308   1.773   1.548
  268SOL    HW2 2812   0.363   1.645   1.602
  269SOL     OW 2813   1.716   0.894   1.229
  269SOL    HW1 2814   1.679   0.808   1.203
  269SOL    HW2 2815   1.666   0.958   1.174
  270SOL     OW 2816   1.230   0.318   0.473
  270SOL    HW1 2817   1.294   0.244   0.465
  270SOL    HW2 2818   1.254   0.357   0.559
  271SOL     OW 2819   0.602   0.725   0.673
  271SOL    HW1 2820   0.630   0.817   0.657
  271SOL    HW2 2821   0.537   0.713   0.601
  272SOL     OW 2822   1.757   0.383   1.644
  272SOL    HW1 2823   1.738   0.378   1.548
  272SOL    HW2 2824   1.692   0.320   1.678
  273SOL     OW 2825   1.727   0.936   1.497
  273SOL    HW1 2826   1.743   1.031   1.503
  273SOL    HW2 2827   1.748   0.917   1.403
  274SOL     OW 2828   0.906   1.346   0.046
  274SOL    HW1 2829   0.822   1.353   0.093
  274SOL    HW2 2830   0.915   1.433   0.003
  275SOL     OW 2831   0.654   1.800   0.901
  275SOL    HW1 2832   0.651   1.897   0.891
  275SOL    HW2 2833   0.748   1.781   0.918
  276SOL     OW 2834   0.873   0.955   0.838
  276SOL    HW1 2835   0.913   0.877   0.879
  276SOL    HW2 2836   0.851   1.010   0.915
  277SOL     OW 2837   1.079   0.987   0.082
  277SOL    HW1 2838   1.082   1.055   0.014
  277SOL    HW2 2839   1.159   0.933   0.063
  278SOL     OW 2840   1.854   1.551   0.813
  278SOL    HW1 2841   1.758   1.546   0.804
  278SOL    HW2 2842   1.871   1.488   0.883
  279SOL     OW 2843   0.223   1.300   1.850
  279SOL    HW1 2844   0.173   1.219   1.830
  279SOL    HW2 2845   0.217   1.305   1.947
  280SOL     OW 2846   0.086   1.228   0.651
  280SOL    HW1 2847   0.110   1.176   0.728
  280SOL    HW2 2848   0.153   1.202   0.587
  281SOL     OW 2849   0.667   1.395   1.614
  281SOL    HW1 2850   0.589   1.346   1.646
  281SOL    HW2 2851   0.658   1.480   1.660
  282SOL     OW 2852   1.839   0.183   1.229
  282SOL    HW1 2853   1.815   0.090   1.239
  282SOL    HW2 2854   1.840   0.192   1.132
  283SOL     OW 2855   0.402   0.413   0.497
  283SOL    HW1 2856   0.447   0.345   0.444
  283SOL    HW2 2857   0.371   0.364   0.575
  284SOL     OW 2858   1.721   1.494   1.083
  284SOL    HW1 2859   1.637   1.464   1.045
  284SOL    HW2 2860   1.725   1.439   1.163
  285SOL     OW 2861   0.323   0.562   1.283
  285SOL    HW1 2862   0.386   0.516   1.341
  285SOL    HW2 2863   0.345   0.527   1.195
  286SOL     OW 2864   0.820   1.579   0.689
  286SOL    HW1 2865   0.804   1.610   0.599
  286SOL    HW2 2866   0.740   1.526   0.705
  287SOL     OW 2867   1.446   0.258   1.091
  287SOL    HW1 2868   1.459   0.171   1.129
  287SOL    HW2 2869   1.405   0.308   1.165
  288SOL     OW 2870   0.980   0.012   1.154
  288SOL    HW1 2871   0.938  11.027   1.151
  288SOL    HW2 2872   1.074  11.092   1.138
  289SOL     OW 2873   0.772   1.327   0.329
  289SOL    HW1 2874   0.749   1.232   0.334
  289SOL    HW2 2875   0.852   1.330   0.383
  290SOL     OW 2876   0.592   1.557   1.277
  290SOL    HW1 2877   0.598   1.642   1.323
  290SOL    HW2 2878   0.684   1.550   1.244
  291SOL     OW 2879   1.316   0.062   0.160
  291SOL    HW1 2880   1.348   0.000   0.092
  291SOL    HW2 2881   1.224   0.032   0.174
  292SOL     OW 2882   1.287   0.458   0.697
  292SOL    HW1 2883   1.228   0.535   0.685
  292SOL    HW2 2884   1.274   0.438   0.792
  293SOL     OW 2885   1.627   0.222   0.860
  293SOL    HW1 2886   1.554   0.228   0.923
  293SOL    HW2 2887   1.611   0.303   0.807
  294SOL     OW 2888   0.048   1.084   0.289
  294SOL    HW1 2889   0.144   1.074   0.273
  294SOL    HW2 2890   0.028   0.995   0.321
  295SOL     OW 2891   0.897   1.646   0.364
  295SOL    HW1 2892   0.824   1.631   0.301
  295SOL    HW2 2893   0.866   1.725   0.413
  296SOL     OW 2894   0.248   0.635   1.991
  296SOL    HW1 2895   0.158   0.625   2.025
  296SOL    HW2 2896   0.240   0.609   1.897
  297SOL     OW 2897   0.221   0.296   2.856
  297SOL    HW1 2898   0.250   0.273   2.947
  297SOL    HW2 2899   0.160   0.223   2.837
  298SOL     OW 2900   0.002   0.381   2.513
  298SOL    HW1 2901  11.037   0.387   2.583
  298SOL    HW2 2902  11.076   0.300   2.466
  299SOL     OW 2903   0.563   1.300   3.055
  299SOL    HW1 2904   0.476   1.281   3.016
  299SOL    HW2 2905   0.552   1.393   3.083
  300SOL     OW 2906   1.537   1.531   2.577
  300SOL    HW1 2907   1.506   1.497   2.664
  300SOL    HW2 2908   1.470   1.503   2.514
  301SOL     OW 2909   1.130   0.696   2.565
  301SOL    HW1 2910   1.167   0.786   2.555
  301SOL    HW2 2911   1.097   0.700   2.656
  302SOL     OW 2912   1.775   0.605   2.095
  302SOL    HW1 2913   1.749   0.603   2.001
  302SOL    HW2 2914   1.734   0.523   2.128
  303SOL     OW 2915   0.766   1.171   2.920
  303SOL    HW1 2916   0.687   1.211   2.962
  303SOL    HW2 2917   0.796   1.245   2.864
  304SOL     OW 2918   0.895   0.758   3.661
  304SOL    HW1 2919   0.856   0.811   3.732
  304SOL    HW2 2920   0.915   0.822   3.591
  305SOL     OW 2921   0.684   1.014   2.512
  305SOL    HW1 2922   0.746   1.005   2.586
  305SOL    HW2 2923   0.612   1.068   2.550
  306SOL     OW 2924   0.715   1.169   3.660
  306SOL    HW1 2925   0.738   1.255   3.701
  306SOL    HW2 2926   0.622   1.186   3.631
  307SOL     OW 2927   0.329   1.430   2.938
  307SOL    HW1 2928   0.252   1.391   2.892
  307SOL    HW2 2929   0.370   1.483   2.868
  308SOL     OW 2930   1.468   1.492   3.234
  308SOL    HW1 2931   1.522   1.574   3.238
  308SOL    HW2 2932   1.400   1.511   3.300
  309SOL     OW 2933   0.455   0.409   3.349
  309SOL    HW1 2934   0.530   0.347   3.345
  309SOL    HW2 2935   0.377   0.351   3.355
  310SOL     OW 2936   1.612   0.458   2.598
  310SOL    HW1 2937   1.561   0.491   2.523
  310SOL    HW2 2938   1.587   0.522   2.667
  311SOL     OW 2939   0.219   1.669   2.323
  311SOL    HW1 2940   0.211   1.746   2.382
  311SOL    HW2 2941   0.280   1.702   2.256
  312SOL     OW 2942   1.124   1.313   3.529
  312SOL    HW1 2943   1.180   1.322   3.607
  312SOL    HW2 2944   1.181   1.271   3.463
  313SOL     OW 2945   0.232   1.408   2.381
  313SOL    HW1 2946   0.230   1.504   2.362
  313SOL    HW2 2947   0.166   1.401   2.452
  314SOL     OW 2948   0.273   1.115   2.770
  314SOL    HW1 2949   0.247   1.031   2.811
  314SOL    HW2 2950   0.204   1.176   2.802
  315SOL     OW 2951   0.618   1.808   3.266
  315SOL    HW1 2952   0.543   1.779   3.321
  315SOL    HW2 2953   0.633   1.898   3.300
  316SOL     OW 2954   0.580   0.990   1.977
  316SOL    HW1 2955   0.626   1.043   1.909
  316SOL    HW2 2956   0.624   1.020   2.058
  317SOL     OW 2957   1.603   0.103   3.345
  317SOL    HW1 2958   1.627   0.157   3.269
  317SOL    HW2 2959   1.567   0.170   3.406
  318SOL     OW 2960   0.125   0.643   2.416
  318SOL    HW1 2961   0.095   0.553   2.433
  318SOL    HW2 2962   0.111   0.688   2.502
  319SOL     OW 2963   1.859   1.731   2.209
  319SOL    HW1 2964   1.933   1.714   2.270
  319SOL    HW2 2965   1.877   1.822   2.181
  320SOL     OW 2966   0.060   1.594   1.988
  320SOL    HW1 2967   0.035   1.501   2.002
  320SOL    HW2 2968   0.018   1.639   2.061
  321SOL     OW 2969   1.682   0.931   2.504
  321SOL    HW1 2970   1.755   0.881   2.465
  321SOL    HW2 2971   1.655   0.987   2.429
  322SOL     OW 2972   1.647   1.117   2.302
  322SOL    HW1 2973   1.738   1.114   2.266
  322SOL    HW2 2974   1.653   1.189   2.367
  323SOL     OW 2975   0.122   0.734   3.444
  323SOL    HW1 2976   0.206   0.778   3.463
  323SOL    HW2 2977   0.060   0.808   3.435
  324SOL     OW 2978   0.624   1.389   2.624
  324SOL    HW1 2979   0.576   1.304   2.630
  324SOL    HW2 2980   0.610   1.407   2.529
  325SOL     OW 2981   1.276   1.232   3.291
  325SOL    HW1 2982   1.303   1.169   3.221
  325SOL    HW2 2983   1.347   1.218   3.357
  326SOL     OW 2984   0.824   0.007   2.387
  326SOL    HW1 2985   0.856   0.096   2.363
  326SOL    HW2 2986   0.727   0.013   2.371
  327SOL     OW 2987   0.179   0.991   3.113
  327SOL    HW1 2988   0.260   0.941   3.089
  327SOL    HW2 2989   0.109   0.929   3.086
  328SOL     OW 2990   1.542   0.970   2.044
  328SOL    HW1 2991   1.468   0.915   2.075
  328SOL    HW2 2992   1.577   1.004   2.128
  329SOL     OW 2993   1.165   1.799   3.464
  329SOL    HW1 2994   1.177   1.868   3.398
  329SOL    HW2 2995   1.199   1.720   3.419
  330SOL     OW 2996   0.327   0.248   3.713
  330SOL    HW1 2997   0.372   0.333   3.727
  330SOL    HW2 2998   0.233   0.271   3.726
  331SOL     OW 2999   1.469   1.428   2.827
  331SOL    HW1 3000   1.403   1.443   2.897
  331SOL    HW2 3001   1.446   1.338   2.796
  332SOL     OW 3002   1.654   1.737   2.459
  332SOL    HW1 3003   1.654   1.701   2.369
  332SOL    HW2 3004   1.617   1.664   2.511
  333SOL     OW 3005   0.593   0.726   2.124
  333SOL    HW1 3006   0.605   0.813   2.083
  333SOL    HW2 3007   0.518   0.740   2.184
  334SOL     OW 3008   1.262   0.378   2.786
  334SOL    HW1 3009   1.175   0.337   2.806
  334SOL    HW2 3010   1.322   0.325   2.842
  335SOL     OW 3011   1.581   1.647   2.169
  335SOL    HW1 3012   1.674   1.673   2.167
  335SOL    HW2 3013   1.565   1.628   2.075
  336SOL     OW 3014   0.810   0.611   3.320
  336SOL    HW1 3015   0.777   0.583   3.407
  336SOL    HW2 3016   0.767   0.547   3.260
  337SOL     OW 3017   1.396   0.497   3.530
  337SOL    HW1 3018   1.394   0.547   3.614
  337SOL    HW2 3019   1.463   0.429   3.547
  338SOL     OW 3020   0.975   0.930   3.454
  338SOL    HW1 3021   1.033   0.854   3.431
  338SOL    HW2 3022   0.921   0.936   3.373
  339SOL     OW 3023   0.992   0.397   3.085
  339SOL    HW1 3024   0.901   0.400   3.118
  339SOL    HW2 3025   0.984   0.339   3.008
  340SOL     OW 3026   1.045   0.700   2.287
  340SOL    HW1 3027   1.067   0.699   2.381
  340SOL    HW2 3028   0.958   0.656   2.286
  341SOL     OW 3029   0.089   0.810   2.629
  341SOL    HW1 3030   0.171   0.799   2.679
  341SOL    HW2 3031   0.055   0.893   2.667
  342SOL     OW 3032   0.142   1.829   3.420
  342SOL    HW1 3033   0.140   1.807   3.515
  342SOL    HW2 3034   0.049   1.848   3.400
  343SOL     OW 3035   0.874   0.348   2.084
  343SOL    HW1 3036   0.917   0.405   2.018
  343SOL    HW2 3037   0.859   0.268   2.032
  344SOL     OW 3038   1.711   0.565   3.698
  344SOL    HW1 3039   1.677   0.647   3.655
  344SOL    HW2 3040   1.738   0.513   3.620
  345SOL     OW 3041   1.361   1.155   2.418
  345SOL    HW1 3042   1.442   1.139   2.368
  345SOL    HW2 3043   1.317   1.222   2.363
  346SOL     OW 3044   0.568   0.205   2.729
  346SOL    HW1 3045   0.582   0.220   2.824
  346SOL    HW2 3046   0.566   0.294   2.692
  347SOL     OW 3047   0.982   1.447   2.345
  347SOL    HW1 3048   0.942   1.509   2.281
  347SOL    HW2 3049   1.005   1.505   2.418
  348SOL     OW 3050   0.376   1.823   2.700
  348SOL    HW1 3051   0.411   1.733   2.719
  348SOL    HW2 3052   0.449   1.882   2.722
  349SOL     OW 3053   1.809   1.035   2.730
  349SOL    HW1 3054   1.761   1.020   2.646
  349SOL    HW2 3055   1.736   1.038   2.794
  350SOL     OW 3056   1.227   1.558   3.349
  350SOL    HW1 3057   1.201   1.502   3.424
  350SOL    HW2 3058   1.181   1.514   3.276
  351SOL     OW 3059   0.325   0.957   2.114
  351SOL    HW1 3060   0.398   0.981   2.055
  351SOL    HW2 3061   0.297   0.870   2.081
  352SOL     OW 3062   1.488   0.748   2.569
  352SOL    HW1 3063   1.479   0.715   2.660
  352SOL    HW2 3064   1.557   0.816   2.578
  353SOL     OW 3065   0.468   1.256   3.584
  353SOL    HW1 3066   0.437   1.259   3.491
  353SOL    HW2 3067   0.385   1.269   3.633
  354SOL     OW 3068   1.098   1.782   2.107
  354SOL    HW1 3069   1.025   1.729   2.144
  354SOL    HW2 3070   1.118   1.733   2.025
  355SOL     OW 3071   0.205   0.287   3.343
  355SOL    HW1 3072   0.125   0.341   3.346
  355SOL    HW2 3073   0.177   0.206   3.391
  356SOL     OW 3074   1.623   1.352   1.962
  356SOL    HW1 3075   1.582   1.437   1.939
  356SOL    HW2 3076   1.564   1.288   1.919
  357SOL     OW 3077   0.461   1.735   2.176
  357SOL    HW1 3078   0.507   1.788   2.244
  357SOL    HW2 3079   0.533   1.700   2.122
  358SOL     OW 3080   1.400   0.088   2.302
  358SOL    HW1 3081   1.390   0.080   2.206
  358SOL    HW2 3082   1.494   0.108   2.313
  359SOL     OW 3083   0.262   1.792   3.085
  359SOL    HW1 3084   0.300   1.713   3.125
  359SOL    HW2 3085   0.229   1.758   3.000
  360SOL     OW 3086   0.971   1.676   2.763
  360SOL    HW1 3087   1.059   1.645   2.736
  360SOL    HW2 3088   0.916   1.641   2.689
  361SOL     OW 3089   0.388   0.662   2.337
  361SOL    HW1 3090   0.419   0.570   2.344
  361SOL    HW2 3091   0.295   0.652   2.364
  362SOL     OW 3092   1.544   0.239   3.576
  362SOL    HW1 3093   1.546   0.252   3.674
  362SOL    HW2 3094   1.486   0.162   3.574
  363SOL     OW 3095   0.633   0.107   1.957
  363SOL    HW1 3096   0.648   0.017   1.991
  363SOL    HW2 3097   0.584   0.089   1.874
  364SOL     OW 3098   0.753   0.289   3.620
  364SOL    HW1 3099   0.833   0.233   3.613
  364SOL    HW2 3100   0.706   0.247   3.694
  365SOL     OW 3101   0.888   1.549   3.056
  365SOL    HW1 3102   0.865   1.503   2.972
  365SOL    HW2 3103   0.930   1.477   3.107
  366SOL     OW 3104   1.318   0.588   3.290
  366SOL    HW1 3105   1.357   0.551   3.373
  366SOL    HW2 3106   1.375   0.665   3.275
  367SOL     OW 3107   0.838   1.406   2.808
  367SOL    HW1 3108   0.922   1.389   2.761
  367SOL    HW2 3109   0.774   1.406   2.734
  368SOL     OW 3110   0.950   0.523   2.762
  368SOL    HW1 3111   0.922   0.495   2.672
  368SOL    HW2 3112   0.974   0.438   2.801
  369SOL     OW 3113   0.555   0.031   2.369
  369SOL    HW1 3114   0.467   0.028   2.410
  369SOL    HW2 3115   0.547   0.110   2.314
  370SOL     OW 3116   1.440   1.170   1.879
  370SOL    HW1 3117   1.466   1.099   1.941
  370SOL    HW2 3118   1.362   1.211   1.921
  371SOL     OW 3119   0.310   0.036   2.069
  371SOL    HW1 3120   0.343   0.110   2.015
  371SOL    HW2 3121   0.392   0.000   2.106
  372SOL     OW 3122   0.943   0.252   2.335
  372SOL    HW1 3123   0.918   0.288   2.248
  372SOL    HW2 3124   1.040   0.263   2.333
  373SOL     OW 3125   1.084   0.716   3.335
  373SOL    HW1 3126   1.016   0.647   3.337
  373SOL    HW2 3127   1.167   0.666   3.323
  374SOL     OW 3128   1.224   1.612   2.656
  374SOL    HW1 3129   1.239   1.663   2.574
  374SOL    HW2 3130   1.310   1.616   2.697
  375SOL     OW 3131   0.461   1.179   2.587
  375SOL    HW1 3132   0.390   1.152   2.650
  375SOL    HW2 3133   0.421   1.153   2.501
  376SOL     OW 3134   1.261   1.811   2.462
  376SOL    HW1 3135   1.312   1.863   2.396
  376SOL    HW2 3136   1.230   1.882   2.520
  377SOL     OW 3137   1.055   0.544   1.880
  377SOL    HW1 3138   1.009   0.625   1.852
  377SOL    HW2 3139   1.126   0.578   1.936
  378SOL     OW 3140   0.062   0.555   3.253
  378SOL    HW1 3141   0.151   0.551   3.215
  378SOL    HW2 3142   0.072   0.625   3.320
  379SOL     OW 3143   0.568   0.228   3.030
  379SOL    HW1 3144   0.594   0.173   3.105
  379SOL    HW2 3145   0.474   0.243   3.048
  380SOL     OW 3146   0.878   0.440   2.520
  380SOL    HW1 3147   0.834   0.499   2.458
  380SOL    HW2 3148   0.897   0.361   2.466
  381SOL     OW 3149   0.998   0.007   2.629
  381SOL    HW1 3150   0.951   0.045   2.553
  381SOL    HW2 3151   0.944  11.031   2.649
  382SOL     OW 3152   1.415   1.182   2.745
  382SOL    HW1 3153   1.356   1.108   2.764
  382SOL    HW2 3154   1.426   1.173   2.649
  383SOL     OW 3155   1.486   0.594   2.822
  383SOL    HW1 3156   1.419   0.524   2.828
  383SOL    HW2 3157   1.536   0.584   2.905
  384SOL     OW 3158   1.841   0.807   2.246
  384SOL    HW1 3159   1.896   0.759   2.312
  384SOL    HW2 3160   1.821   0.734   2.183
  385SOL     OW 3161   0.494   1.385   2.009
  385SOL    HW1 3162   0.408   1.381   2.054
  385SOL    HW2 3163   0.473   1.356   1.920
  386SOL     OW 3164   1.670   1.290   2.516
  386SOL    HW1 3165   1.768   1.288   2.518
  386SOL    HW2 3166   1.649   1.382   2.538
  387SOL     OW 3167   1.413   0.599   1.930
  387SOL    HW1 3168   1.363   0.568   2.009
  387SOL    HW2 3169   1.498   0.554   1.941
  388SOL     OW 3170   0.519   0.247   2.168
  388SOL    HW1 3171   0.572   0.209   2.096
  388SOL    HW2 3172   0.498   0.335   2.132
  389SOL     OW 3173   1.734   1.230   3.440
  389SOL    HW1 3174   1.822   1.190   3.433
  389SOL    HW2 3175   1.758   1.323   3.455
  390SOL     OW 3176   1.037   1.378   3.220
  390SOL    HW1 3177   0.959   1.333   3.258
  390SOL    HW2 3178   1.108   1.313   3.239
  391SOL     OW 3179   1.611   1.612   3.508
  391SOL    HW1 3180   1.614   1.651   3.419
  391SOL    HW2 3181   1.692   1.558   3.508
  392SOL     OW 3182   1.136   1.241   2.968
  392SOL    HW1 3183   1.044   1.246   2.995
  392SOL    HW2 3184   1.130   1.264   2.873
  393SOL     OW 3185   1.592   1.086   2.926
  393SOL    HW1 3186   1.601   1.152   2.998
  393SOL    HW2 3187   1.539   1.135   2.861
  394SOL     OW 3188   0.915   0.098   3.278
  394SOL    HW1 3189   0.932   0.078   3.184
  394SOL    HW2 3190   1.000   0.136   3.306
  395SOL     OW 3191   0.709   1.051   2.214
  395SOL    HW1 3192   0.697   1.034   2.308
  395SOL    HW2 3193   0.792   1.003   2.195
  396SOL     OW 3194   0.393   0.818   3.105
  396SOL    HW1 3195   0.464   0.825   3.171
  396SOL    HW2 3196   0.367   0.725   3.116
  397SOL     OW 3197   1.272   0.399   3.113
  397SOL    HW1 3198   1.284   0.468   3.182
  397SOL    HW2 3199   1.178   0.409   3.090
  398SOL     OW 3200   0.031   1.577   3.260
  398SOL    HW1 3201   0.017   1.660   3.213
  398SOL    HW2 3202   0.127   1.576   3.269
  399SOL     OW 3203   0.362   1.106   2.348
  399SOL    HW1 3204   0.369   1.173   2.279
  399SOL    HW2 3205   0.338   1.028   2.297
  400SOL     OW 3206   0.538   0.544   2.696
  400SOL    HW1 3207   0.574   0.610   2.633
  400SOL    HW2 3208   0.595   0.558   2.774
  401SOL     OW 3209   1.230   1.338   2.255
  401SOL    HW1 3210   1.267   1.422   2.287
  401SOL    HW2 3211   1.136   1.346   2.281
  402SOL     OW 3212   1.289   1.463   3.035
  402SOL    HW1 3213   1.349   1.449   3.110
  402SOL    HW2 3214   1.238   1.380   3.031
  403SOL     OW 3215   1.586   0.620   2.328
  403SOL    HW1 3216   1.538   0.666   2.398
  403SOL    HW2 3217   1.613   0.692   2.270
  404SOL     OW 3218   0.321   1.525   3.185
  404SOL    HW1 3219   0.313   1.482   3.098
  404SOL    HW2 3220   0.415   1.546   3.185
  405SOL     OW 3221   0.427   0.737   3.471
  405SOL    HW1 3222   0.494   0.769   3.408
  405SOL    HW2 3223   0.446   0.642   3.471
  406SOL     OW 3224   1.625   0.772   3.548
  406SOL    HW1 3225   1.536   0.808   3.547
  406SOL    HW2 3226   1.664   0.814   3.468
  407SOL     OW 3227   0.995   0.138   3.613
  407SOL    HW1 3228   1.048   0.218   3.612
  407SOL    HW2 3229   1.058   0.074   3.575
  408SOL     OW 3230   0.478   0.058   3.601
  408SOL    HW1 3231   0.413   0.002   3.557
  408SOL    HW2 3232   0.421   0.130   3.636
  409SOL     OW 3233   0.609   0.877   2.902
  409SOL    HW1 3234   0.623   0.972   2.900
  409SOL    HW2 3235   0.548   0.865   2.976
  410SOL     OW 3236   1.344   0.875   2.888
  410SOL    HW1 3237   1.267   0.827   2.852
  410SOL    HW2 3238   1.408   0.804   2.898
  411SOL     OW 3239   1.232   0.508   2.120
  411SOL    HW1 3240   1.242   0.432   2.181
  411SOL    HW2 3241   1.167   0.562   2.168
  412SOL     OW 3242   0.293   0.199   3.102
  412SOL    HW1 3243   0.252   0.237   3.183
  412SOL    HW2 3244   0.276   0.105   3.113
  413SOL     OW 3245   0.065   1.306   3.140
  413SOL    HW1 3246   0.111   1.249   3.204
  413SOL    HW2 3247   0.054   1.390   3.189
  414SOL     OW 3248   0.723   0.613   2.896
  414SOL    HW1 3249   0.804   0.597   2.844
  414SOL    HW2 3250   0.704   0.707   2.882
  415SOL     OW 3251   1.773   0.962   3.707
  415SOL    HW1 3252   1.733   0.902   3.642
  415SOL    HW2 3253   1.706   0.962   3.777
  416SOL     OW 3254   0.286   0.055   2.466
  416SOL    HW1 3255   0.272   0.150   2.481
  416SOL    HW2 3256   0.296   0.025   2.557
  417SOL     OW 3257   1.583   0.389   2.192
  417SOL    HW1 3258   1.620   0.323   2.252
  417SOL    HW2 3259   1.581   0.470   2.247
  418SOL     OW 3260   1.079   0.748   2.830
  418SOL    HW1 3261   1.053   0.765   2.922
  418SOL    HW2 3262   1.039   0.659   2.815
  419SOL     OW 3263   0.985   1.561   3.566
  419SOL    HW1 3264   0.961   1.623   3.494
  419SOL    HW2 3265   0.998   1.478   3.519
  420SOL     OW 3266   1.847   1.487   3.473
  420SOL    HW1 3267   1.868   1.517   3.383
  420SOL    HW2 3268   1.924   1.518   3.522
  421SOL     OW 3269   0.358   0.901   3.672
  421SOL    HW1 3270   0.442   0.910   3.720
  421SOL    HW2 3271   0.381   0.833   3.605
  422SOL     OW 3272   1.513   0.244   1.968
  422SOL    HW1 3273   1.434   0.198   2.003
  422SOL    HW2 3274   1.539   0.301   2.043
  423SOL     OW 3275   1.293   0.833   1.884
  423SOL    HW1 3276   1.350   0.755   1.900
  423SOL    HW2 3277   1.318   0.857   1.792
  424SOL     OW 3278   1.082   1.359   2.712
  424SOL    HW1 3279   1.077   1.285   2.647
  424SOL    HW2 3280   1.142   1.422   2.669
  425SOL     OW 3281   0.289   0.831   2.820
  425SOL    HW1 3282   0.381   0.858   2.811
  425SOL    HW2 3283   0.296   0.741   2.855
  426SOL     OW 3284   0.334   0.547   2.861
  426SOL    HW1 3285   0.292   0.460   2.850
  426SOL    HW2 3286   0.403   0.544   2.790
  427SOL     OW 3287   1.161   0.373   3.541
  427SOL    HW1 3288   1.113   0.425   3.609
  427SOL    HW2 3289   1.248   0.417   3.542
  428SOL     OW 3290   1.163   0.217   3.321
  428SOL    HW1 3291   1.162   0.279   3.397
  428SOL    HW2 3292   1.196   0.272   3.249
  429SOL     OW 3293  11.095   1.329   2.048
  429SOL    HW1 3294  11.002   1.339   2.024
  429SOL    HW2 3295  11.095   1.240   2.089
  430SOL     OW 3296   0.138   1.792   2.825
  430SOL    HW1 3297   0.092   1.734   2.761
  430SOL    HW2 3298   0.220   1.812   2.777
  431SOL     OW 3299   0.500   1.584   2.768
  431SOL    HW1 3300   0.582   1.613   2.808
  431SOL    HW2 3301   0.529   1.508   2.714
  432SOL     OW 3302   0.965   0.785   3.090
  432SOL    HW1 3303   1.021   0.756   3.165
  432SOL    HW2 3304   0.880   0.747   3.114
  433SOL     OW 3305   0.000   0.596   2.946
  433SOL    HW1 3306   0.080   0.563   2.904
  433SOL    HW2 3307   0.015   0.570   3.038
  434SOL     OW 3308   0.215   0.536   3.601
  434SOL    HW1 3309   0.245   0.474   3.534
  434SOL    HW2 3310   0.169   0.603   3.547
  435SOL     OW 3311   1.359   0.924   3.511
  435SOL    HW1 3312   1.398   1.013   3.508
  435SOL    HW2 3313   1.361   0.898   3.418
  436SOL     OW 3314   0.798   0.591   2.256
  436SOL    HW1 3315   0.805   0.514   2.198
  436SOL    HW2 3316   0.723   0.639   2.216
  437SOL     OW 3317   1.646   0.609   3.058
  437SOL    HW1 3318   1.632   0.537   3.121
  437SOL    HW2 3319   1.734   0.586   3.020
  438SOL     OW 3320   0.270   1.542   3.566
  438SOL    HW1 3321   0.238   1.610   3.628
  438SOL    HW2 3322   0.260   1.460   3.617
  439SOL     OW 3323   0.701   0.473   3.121
  439SOL    HW1 3324   0.654   0.394   3.089
  439SOL    HW2 3325   0.705   0.529   3.041
  440SOL     OW 3326   0.899   1.696   3.346
  440SOL    HW1 3327   0.874   1.660   3.261
  440SOL    HW2 3328   0.907   1.792   3.329
  441SOL     OW 3329   0.471   0.495   2.046
  441SOL    HW1 3330   0.530   0.572   2.058
  441SOL    HW2 3331   0.384   0.541   2.041
  442SOL     OW 3332   0.173   1.132   3.356
  442SOL    HW1 3333   0.177   1.075   3.435
  442SOL    HW2 3334   0.180   1.069   3.281
  443SOL     OW 3335   1.311   1.052   3.086
  443SOL    HW1 3336   1.330   0.989   3.013
  443SOL    HW2 3337   1.252   1.115   3.041
  444SOL     OW 3338   1.321   0.843   2.157
  444SOL    HW1 3339   1.237   0.826   2.203
  444SOL    HW2 3340   1.295   0.846   2.063
  445SOL     OW 3341   1.755   1.748   3.001
  445SOL    HW1 3342   1.828   1.772   2.941
  445SOL    HW2 3343   1.744   1.652   2.981
  446SOL     OW 3344   1.238   1.723   2.980
  446SOL    HW1 3345   1.322   1.763   2.951
  446SOL    HW2 3346   1.265   1.630   2.997
  447SOL     OW 3347   0.097   1.294   2.873
  447SOL    HW1 3348   0.094   1.301   2.971
  447SOL    HW2 3349   0.024   1.233   2.855
  448SOL     OW 3350   0.676   1.651   3.603
  448SOL    HW1 3351   0.615   1.726   3.594
  448SOL    HW2 3352   0.747   1.675   3.543
  449SOL     OW 3353   1.690   0.108   2.358
  449SOL    HW1 3354   1.769   0.133   2.306
  449SOL    HW2 3355   1.725   0.048   2.424
  450SOL     OW 3356   1.356   1.575   2.341
  450SOL    HW1 3357   1.422   1.589   2.271
  450SOL    HW2 3358   1.326   1.665   2.361
  451SOL     OW 3359   0.172   1.775   3.697
  451SOL    HW1 3360   0.112   1.719   3.751
  451SOL    HW2 3361   0.217   1.823   3.768
  452SOL     OW 3362   1.267   0.924   2.542
  452SOL    HW1 3363   1.344   0.865   2.544
  452SOL    HW2 3364   1.300   0.998   2.487
  453SOL     OW 3365   0.802   1.265   3.308
  453SOL    HW1 3366   0.765   1.318   3.382
  453SOL    HW2 3367   0.730   1.274   3.244
  454SOL     OW 3368   0.670   1.604   2.018
  454SOL    HW1 3369   0.677   1.614   1.921
  454SOL    HW2 3370   0.620   1.521   2.025
  455SOL     OW 3371   1.613   1.714   3.250
  455SOL    HW1 3372   1.664   1.727   3.168
  455SOL    HW2 3373   1.603   1.806   3.282
  456SOL     OW 3374   1.857   0.117   2.816
  456SOL    HW1 3375   1.887   0.050   2.753
  456SOL    HW2 3376   1.779   0.156   2.771
  457SOL     OW 3377   0.264   0.304   2.568
  457SOL    HW1 3378   0.178   0.346   2.554
  457SOL    HW2 3379   0.272   0.305   2.664
  458SOL     OW 3380   1.177   1.627   1.891
  458SOL    HW1 3381   1.195   1.532   1.899
  458SOL    HW2 3382   1.120   1.632   1.812
  459SOL     OW 3383   0.801   0.994   3.244
  459SOL    HW1 3384   0.836   0.981   3.155
  459SOL    HW2 3385   0.815   1.089   3.262
  460SOL     OW 3386   0.929   0.923   2.145
  460SOL    HW1 3387   1.001   0.952   2.085
  460SOL    HW2 3388   0.964   0.842   2.184
  461SOL     OW 3389   1.497   1.588   1.906
  461SOL    HW1 3390   1.409   1.624   1.897
  461SOL    HW2 3391   1.535   1.601   1.816
  462SOL     OW 3392   0.395   1.281   3.330
  462SOL    HW1 3393   0.363   1.365   3.293
  462SOL    HW2 3394   0.314   1.226   3.327
  463SOL     OW 3395   1.589   1.293   3.115
  463SOL    HW1 3396   1.649   1.273   3.188
  463SOL    HW2 3397   1.538   1.368   3.152
  464SOL     OW 3398   1.035   1.136   2.567
  464SOL    HW1 3399   0.970   1.077   2.609
  464SOL    HW2 3400   1.094   1.072   2.525
  465SOL     OW 3401   1.030   0.251   2.838
  465SOL    HW1 3402   1.026   0.203   2.754
  465SOL    HW2 3403   1.014   0.178   2.901
  466SOL     OW 3404   0.612   1.467   2.356
  466SOL    HW1 3405   0.664   1.426   2.284
  466SOL    HW2 3406   0.538   1.506   2.307
  467SOL     OW 3407   1.715   0.368   3.243
  467SOL    HW1 3408   1.774   0.445   3.236
  467SOL    HW2 3409   1.761   0.304   3.185
  468SOL     OW 3410   0.245   1.351   2.126
  468SOL    HW1 3411   0.149   1.364   2.111
  468SOL    HW2 3412   0.250   1.364   2.223
  469SOL     OW 3413   0.128   0.994   3.588
  469SOL    HW1 3414   0.063   0.955   3.648
  469SOL    HW2 3415   0.213   0.963   3.627
  470SOL     OW 3416   0.677   0.225   3.352
  470SOL    HW1 3417   0.758   0.176   3.330
  470SOL    HW2 3418   0.694   0.251   3.443
  471SOL     OW 3419   0.087   0.343   1.911
  471SOL    HW1 3420   0.002   0.336   1.867
  471SOL    HW2 3421   0.123   0.421   1.865
  472SOL     OW 3422   1.438   0.859   3.250
  472SOL    HW1 3423   1.401   0.921   3.185
  472SOL    HW2 3424   1.533   0.866   3.233
  473SOL     OW 3425   0.079   0.154   2.161
  473SOL    HW1 3426   0.077   0.225   2.095
  473SOL    HW2 3427   0.171   0.122   2.155
  474SOL     OW 3428   1.216   1.334   1.975
  474SOL    HW1 3429   1.127   1.296   1.979
  474SOL    HW2 3430   1.236   1.348   2.069
  475SOL     OW 3431   0.611   0.800   3.276
  475SOL    HW1 3432   0.662   0.882   3.272
  475SOL    HW2 3433   0.683   0.737   3.295
  476SOL     OW 3434   1.519   1.771   2.827
  476SOL    HW1 3435   1.547   1.817   2.747
  476SOL    HW2 3436   1.600   1.768   2.879
  477SOL     OW 3437   0.716   0.565   3.572
  477SOL    HW1 3438   0.776   0.614   3.630
  477SOL    HW2 3439   0.723   0.473   3.604
  478SOL     OW 3440   1.458   1.186   3.491
  478SOL    HW1 3441   1.452   1.186   3.589
  478SOL    HW2 3442   1.553   1.204   3.478
  479SOL     OW 3443   0.396   1.735   3.418
  479SOL    HW1 3444   0.311   1.782   3.402
  479SOL    HW2 3445   0.362   1.650   3.453
  480SOL     OW 3446   1.688   0.890   3.088
  480SOL    HW1 3447   1.673   0.801   3.050
  480SOL    HW2 3448   1.650   0.950   3.021
  481SOL     OW 3449   1.236   0.308   2.314
  481SOL    HW1 3450   1.293   0.229   2.319
  481SOL    HW2 3451   1.260   0.358   2.395
  482SOL     OW 3452   0.612   0.747   2.517
  482SOL    HW1 3453   0.640   0.840   2.509
  482SOL    HW2 3454   0.542   0.739   2.451
  483SOL     OW 3455   1.771   0.380   3.509
  483SOL    HW1 3456   1.751   0.377   3.414
  483SOL    HW2 3457   1.700   0.323   3.544
  484SOL     OW 3458   1.737   0.931   3.356
  484SOL    HW1 3459   1.729   1.027   3.354
  484SOL    HW2 3460   1.747   0.910   3.261
  485SOL     OW 3461   0.858   1.370   1.897
  485SOL    HW1 3462   0.833   1.386   1.989
  485SOL    HW2 3463   0.888   1.457   1.865
  486SOL     OW 3464   0.702   1.815   2.831
  486SOL    HW1 3465   0.659   1.898   2.804
  486SOL    HW2 3466   0.766   1.800   2.761
  487SOL     OW 3467   0.876   0.962   2.705
  487SOL    HW1 3468   0.918   0.880   2.736
  487SOL    HW2 3469   0.853   1.007   2.788
  488SOL     OW 3470   1.103   0.998   1.959
  488SOL    HW1 3471   1.075   1.051   1.882
  488SOL    HW2 3472   1.167   0.935   1.918
  489SOL     OW 3473   1.866   1.553   2.699
  489SOL    HW1 3474   1.782   1.569   2.655
  489SOL    HW2 3475   1.843   1.491   2.769
  490SOL     OW 3476   0.238   1.316   3.711
  490SOL    HW1 3477   0.167   1.252   3.704
  490SOL    HW2 3478   0.242   1.326   3.809
  491SOL     OW 3479   0.081   1.241   2.530
  491SOL    HW1 3480   0.083   1.162   2.585
  491SOL    HW2 3481   0.160   1.230   2.475
  492SOL     OW 3482   0.666   1.404   3.485
  492SOL    HW1 3483   0.587   1.353   3.510
  492SOL    HW2 3484   0.654   1.486   3.535
  493SOL     OW 3485   1.829   0.195   3.075
  493SOL    HW1 3486   1.810   0.102   3.094
  493SOL    HW2 3487   1.832   0.193   2.978
  494SOL     OW 3488   0.430   0.400   2.375
  494SOL    HW1 3489   0.456   0.329   2.315
  494SOL    HW2 3490   0.374   0.356   2.441
  495SOL     OW 3491   1.713   1.491   2.948
  495SOL    HW1 3492   1.629   1.467   2.906
  495SOL    HW2 3493   1.715   1.427   3.021
  496SOL     OW 3494   0.328   0.558   3.154
  496SOL    HW1 3495   0.384   0.512   3.220
  496SOL    HW2 3496   0.361   0.525   3.069
  497SOL     OW 3497   0.830   1.605   2.541
  497SOL    HW1 3498   0.821   1.655   2.458
  497SOL    HW2 3499   0.756   1.542   2.536
  498SOL     OW 3500   1.428   0.250   2.955
  498SOL    HW1 3501   1.451   0.167   2.999
  498SOL    HW2 3502   1.379   0.300   3.024
  499SOL     OW 3503   0.989   0.019   3.021
  499SOL    HW1 3504   0.941  11.037   3.011
  499SOL    HW2 3505   1.082  11.092   3.013
  500SOL     OW 3506   0.780   1.331   2.180
  500SOL    HW1 3507   0.751   1.239   2.176
  500SOL    HW2 3508   0.851   1.327   2.247
  501SOL     OW 3509   0.590   1.562   3.135
  501SOL    HW1 3510   0.595   1.646   3.184
  501SOL    HW2 3511   0.681   1.555   3.105
  502SOL     OW 3512   1.318   0.066   2.038
  502SOL    HW1 3513   1.323  11.093   1.976
  502SOL    HW2 3514   1.230   0.051   2.078
  503SOL     OW 3515   1.277   0.457   2.530
  503SOL    HW1 3516   1.228   0.540   2.525
  503SOL    HW2 3517   1.263   0.430   2.623
  504SOL     OW 3518   1.626   0.213   2.730
  504SOL    HW1 3519   1.551   0.223   2.791
  504SOL    HW2 3520   1.621   0.297   2.682
  505SOL     OW 3521   0.042   1.078   2.160
  505SOL    HW1 3522   0.137   1.079   2.144
  505SOL    HW2 3523   0.028   0.983   2.180
  506SOL     OW 3524   0.883   1.651   2.188
  506SOL    HW1 3525   0.808   1.631   2.129
  506SOL    HW2 3526   0.853   1.731   2.236
  507SOL     OW 3527   0.245   0.623   3.855
  507SOL    HW1 3528   0.153   0.620   3.888
  507SOL    HW2 3529   0.236   0.601   3.760
  508SOL     OW 3530   0.222   0.296   4.725
  508SOL    HW1 3531   0.251   0.272   4.815
  508SOL    HW2 3532   0.165   0.222   4.701
  509SOL     OW 3533  11.098   0.389   4.370
  509SOL    HW1 3534  11.034   0.389   4.441
  509SOL    HW2 3535  11.077   0.307   4.323
  510SOL     OW 3536   0.568   1.292   4.917
  510SOL    HW1 3537   0.483   1.288   4.871
  510SOL    HW2 3538   0.571   1.385   4.944
  511SOL     OW 3539   1.510   1.536   4.429
  511SOL    HW1 3540   1.453   1.553   4.507
  511SOL    HW2 3541   1.443   1.539   4.358
  512SOL     OW 3542   1.118   0.688   4.425
  512SOL    HW1 3543   1.167   0.772   4.409
  512SOL    HW2 3544   1.097   0.697   4.519
  513SOL     OW 3545   1.775   0.604   3.956
  513SOL    HW1 3546   1.757   0.589   3.861
  513SOL    HW2 3547   1.731   0.526   3.994
  514SOL     OW 3548   0.736   1.163   4.752
  514SOL    HW1 3549   0.676   1.209   4.815
  514SOL    HW2 3550   0.776   1.241   4.709
  515SOL     OW 3551   0.670   1.003   4.365
  515SOL    HW1 3552   0.738   1.003   4.434
  515SOL    HW2 3553   0.599   1.058   4.403
  516SOL     OW 3554   0.717   1.169   5.521
  516SOL    HW1 3555   0.763   1.250   5.550
  516SOL    HW2 3556   0.631   1.204   5.490
  517SOL     OW 3557   0.334   1.427   4.785
  517SOL    HW1 3558   0.257   1.391   4.738
  517SOL    HW2 3559   0.379   1.479   4.716
  518SOL     OW 3560   1.477   1.497   5.098
  518SOL    HW1 3561   1.530   1.579   5.104
  518SOL    HW2 3562   1.409   1.512   5.165
  519SOL     OW 3563   0.462   0.408   5.233
  519SOL    HW1 3564   0.532   0.344   5.211
  519SOL    HW2 3565   0.381   0.358   5.213
  520SOL     OW 3566   1.593   0.452   4.461
  520SOL    HW1 3567   1.530   0.478   4.392
  520SOL    HW2 3568   1.585   0.525   4.523
  521SOL     OW 3569   0.200   1.707   4.169
  521SOL    HW1 3570   0.221   1.777   4.233
  521SOL    HW2 3571   0.280   1.705   4.114
  522SOL     OW 3572   1.131   1.346   5.388
  522SOL    HW1 3573   1.163   1.337   5.479
  522SOL    HW2 3574   1.087   1.260   5.378
  523SOL     OW 3575   0.214   1.491   4.339
  523SOL    HW1 3576   0.211   1.566   4.277
  523SOL    HW2 3577   0.188   1.418   4.281
  524SOL     OW 3578   0.266   1.123   4.630
  524SOL    HW1 3579   0.242   1.035   4.665
  524SOL    HW2 3580   0.198   1.180   4.670
  525SOL     OW 3581   0.610   1.804   5.133
  525SOL    HW1 3582   0.533   1.779   5.188
  525SOL    HW2 3583   0.631   1.895   5.164
  526SOL     OW 3584   0.592   0.985   3.832
  526SOL    HW1 3585   0.631   1.055   3.777
  526SOL    HW2 3586   0.626   1.008   3.920
  527SOL     OW 3587   1.601   0.096   5.214
  527SOL    HW1 3588   1.619   0.141   5.131
  527SOL    HW2 3589   1.563   0.168   5.268
  528SOL     OW 3590   0.123   0.641   4.270
  528SOL    HW1 3591   0.086   0.553   4.288
  528SOL    HW2 3592   0.104   0.690   4.352
  529SOL     OW 3593   1.850   1.738   4.069
  529SOL    HW1 3594   1.922   1.721   4.133
  529SOL    HW2 3595   1.864   1.832   4.049
  530SOL     OW 3596   0.050   1.604   3.865
  530SOL    HW1 3597   0.036   1.508   3.857
  530SOL    HW2 3598   0.102   1.609   3.947
  531SOL     OW 3599   1.680   0.923   4.374
  531SOL    HW1 3600   1.761   0.886   4.338
  531SOL    HW2 3601   1.649   0.980   4.302
  532SOL     OW 3602   1.644   1.119   4.172
  532SOL    HW1 3603   1.735   1.126   4.141
  532SOL    HW2 3604   1.642   1.186   4.244
  533SOL     OW 3605   0.128   0.739   5.322
  533SOL    HW1 3606   0.222   0.766   5.321
  533SOL    HW2 3607   0.084   0.825   5.325
  534SOL     OW 3608   0.624   1.388   4.482
  534SOL    HW1 3609   0.583   1.301   4.497
  534SOL    HW2 3610   0.599   1.404   4.390
  535SOL     OW 3611   1.278   1.221   5.146
  535SOL    HW1 3612   1.308   1.156   5.080
  535SOL    HW2 3613   1.347   1.213   5.215
  536SOL     OW 3614   0.838   0.000   4.258
  536SOL    HW1 3615   0.866   0.090   4.229
  536SOL    HW2 3616   0.741   0.005   4.246
  537SOL     OW 3617   0.178   0.987   4.969
  537SOL    HW1 3618   0.259   0.936   4.951
  537SOL    HW2 3619   0.111   0.933   4.926
  538SOL     OW 3620   1.544   0.965   3.909
  538SOL    HW1 3621   1.469   0.910   3.937
  538SOL    HW2 3622   1.577   0.997   3.995
  539SOL     OW 3623   1.175   1.795   5.343
  539SOL    HW1 3624   1.180   1.854   5.267
  539SOL    HW2 3625   1.200   1.709   5.305
  540SOL     OW 3626   0.335   0.248   5.603
  540SOL    HW1 3627   0.370   0.331   5.567
  540SOL    HW2 3628   0.241   0.271   5.621
  541SOL     OW 3629   1.489   1.427   4.703
  541SOL    HW1 3630   1.411   1.461   4.750
  541SOL    HW2 3631   1.454   1.346   4.662
  542SOL     OW 3632   1.654   1.735   4.329
  542SOL    HW1 3633   1.639   1.699   4.241
  542SOL    HW2 3634   1.611   1.668   4.385
  543SOL     OW 3635   0.602   0.718   3.985
  543SOL    HW1 3636   0.605   0.806   3.944
  543SOL    HW2 3637   0.527   0.726   4.045
  544SOL     OW 3638   1.269   0.376   4.661
  544SOL    HW1 3639   1.184   0.330   4.674
  544SOL    HW2 3640   1.329   0.325   4.718
  545SOL     OW 3641   1.569   1.648   4.026
  545SOL    HW1 3642   1.660   1.683   4.027
  545SOL    HW2 3643   1.558   1.628   3.932
  546SOL     OW 3644   0.804   0.627   5.160
  546SOL    HW1 3645   0.791   0.586   5.246
  546SOL    HW2 3646   0.768   0.559   5.099
  547SOL     OW 3647   1.399   0.490   5.396
  547SOL    HW1 3648   1.409   0.539   5.480
  547SOL    HW2 3649   1.461   0.416   5.408
  548SOL     OW 3650   0.947   0.889   5.320
  548SOL    HW1 3651   1.010   0.826   5.278
  548SOL    HW2 3652   0.895   0.915   5.242
  549SOL     OW 3653   0.987   0.392   4.944
  549SOL    HW1 3654   0.895   0.399   4.972
  549SOL    HW2 3655   0.982   0.333   4.867
  550SOL     OW 3656   1.049   0.701   4.150
  550SOL    HW1 3657   1.072   0.702   4.245
  550SOL    HW2 3658   0.963   0.655   4.150
  551SOL     OW 3659   0.083   0.801   4.483
  551SOL    HW1 3660   0.169   0.800   4.529
  551SOL    HW2 3661   0.045   0.882   4.522
  552SOL     OW 3662   0.139   1.815   5.286
  552SOL    HW1 3663   0.138   1.809   5.384
  552SOL    HW2 3664   0.051   1.847   5.265
  553SOL     OW 3665   0.884   0.327   3.949
  553SOL    HW1 3666   0.920   0.391   3.886
  553SOL    HW2 3667   0.875   0.249   3.892
  554SOL     OW 3668   1.711   0.551   5.556
  554SOL    HW1 3669   1.677   0.631   5.511
  554SOL    HW2 3670   1.741   0.500   5.479
  555SOL     OW 3671   1.349   1.145   4.289
  555SOL    HW1 3672   1.429   1.146   4.236
  555SOL    HW2 3673   1.298   1.217   4.248
  556SOL     OW 3674   0.560   0.200   4.597
  556SOL    HW1 3675   0.577   0.219   4.691
  556SOL    HW2 3676   0.554   0.288   4.558
  557SOL     OW 3677   0.983   1.442   4.212
  557SOL    HW1 3678   0.950   1.511   4.151
  557SOL    HW2 3679   1.003   1.495   4.292
  558SOL     OW 3680   0.369   1.808   4.571
  558SOL    HW1 3681   0.393   1.713   4.575
  558SOL    HW2 3682   0.455   1.847   4.595
  559SOL     OW 3683   1.811   1.037   4.602
  559SOL    HW1 3684   1.739   1.021   4.538
  559SOL    HW2 3685   1.764   1.026   4.687
  560SOL     OW 3686   1.224   1.553   5.224
  560SOL    HW1 3687   1.197   1.477   5.279
  560SOL    HW2 3688   1.186   1.528   5.138
  561SOL     OW 3689   0.326   0.948   3.979
  561SOL    HW1 3690   0.377   0.984   3.904
  561SOL    HW2 3691   0.295   0.863   3.946
  562SOL     OW 3692   1.493   0.740   4.438
  562SOL    HW1 3693   1.479   0.712   4.530
  562SOL    HW2 3694   1.555   0.815   4.447
  563SOL     OW 3695   0.472   1.261   5.441
  563SOL    HW1 3696   0.444   1.269   5.347
  563SOL    HW2 3697   0.391   1.288   5.487
  564SOL     OW 3698   1.100   1.781   3.964
  564SOL    HW1 3699   1.038   1.726   4.015
  564SOL    HW2 3700   1.118   1.725   3.886
  565SOL     OW 3701   0.201   0.303   5.205
  565SOL    HW1 3702   0.118   0.340   5.174
  565SOL    HW2 3703   0.173   0.219   5.247
  566SOL     OW 3704   1.633   1.355   3.822
  566SOL    HW1 3705   1.583   1.436   3.800
  566SOL    HW2 3706   1.575   1.285   3.786
  567SOL     OW 3707   0.444   1.736   4.043
  567SOL    HW1 3708   0.496   1.783   4.112
  567SOL    HW2 3709   0.514   1.695   3.990
  568SOL     OW 3710   1.388   0.077   4.180
  568SOL    HW1 3711   1.393   0.071   4.083
  568SOL    HW2 3712   1.480   0.094   4.205
  569SOL     OW 3713   0.258   1.793   4.945
  569SOL    HW1 3714   0.303   1.716   4.982
  569SOL    HW2 3715   0.228   1.762   4.858
  570SOL     OW 3716   0.945   1.693   4.621
  570SOL    HW1 3717   1.038   1.662   4.612
  570SOL    HW2 3718   0.906   1.647   4.544
  571SOL     OW 3719   0.387   0.658   4.196
  571SOL    HW1 3720   0.418   0.566   4.209
  571SOL    HW2 3721   0.292   0.650   4.217
  572SOL     OW 3722   1.537   0.239   5.440
  572SOL    HW1 3723   1.533   0.258   5.537
  572SOL    HW2 3724   1.483   0.158   5.438
  573SOL     OW 3725   0.633   0.114   3.809
  573SOL    HW1 3726   0.654   0.027   3.847
  573SOL    HW2 3727   0.580   0.090   3.731
  574SOL     OW 3728   0.760   0.284   5.473
  574SOL    HW1 3729   0.838   0.225   5.472
  574SOL    HW2 3730   0.711   0.253   5.550
  575SOL     OW 3731   0.866   1.527   4.918
  575SOL    HW1 3732   0.865   1.508   4.822
  575SOL    HW2 3733   0.938   1.471   4.951
  576SOL     OW 3734   1.323   0.594   5.157
  576SOL    HW1 3735   1.362   0.557   5.239
  576SOL    HW2 3736   1.381   0.670   5.140
  577SOL     OW 3737   0.831   1.402   4.666
  577SOL    HW1 3738   0.919   1.384   4.627
  577SOL    HW2 3739   0.774   1.408   4.587
  578SOL     OW 3740   0.952   0.526   4.634
  578SOL    HW1 3741   0.917   0.502   4.546
  578SOL    HW2 3742   0.980   0.439   4.667
  579SOL     OW 3743   0.566   0.018   4.234
  579SOL    HW1 3744   0.477   0.018   4.276
  579SOL    HW2 3745   0.557   0.096   4.177
  580SOL     OW 3746   1.442   1.172   3.756
  580SOL    HW1 3747   1.467   1.100   3.817
  580SOL    HW2 3748   1.374   1.222   3.806
  581SOL     OW 3749   0.315   0.043   3.925
  581SOL    HW1 3750   0.351   0.123   3.883
  581SOL    HW2 3751   0.395  11.097   3.949
  582SOL     OW 3752   0.942   0.245   4.207
  582SOL    HW1 3753   0.920   0.277   4.117
  582SOL    HW2 3754   1.038   0.255   4.207
  583SOL     OW 3755   1.089   0.712   5.187
  583SOL    HW1 3756   1.030   0.637   5.170
  583SOL    HW2 3757   1.178   0.672   5.174
  584SOL     OW 3758   0.461   1.159   4.446
  584SOL    HW1 3759   0.387   1.149   4.509
  584SOL    HW2 3760   0.417   1.142   4.360
  585SOL     OW 3761   1.252   1.808   4.289
  585SOL    HW1 3762   1.293   1.896   4.294
  585SOL    HW2 3763   1.247   1.779   4.382
  586SOL     OW 3764   1.062   0.543   3.726
  586SOL    HW1 3765   1.010   0.623   3.710
  586SOL    HW2 3766   1.127   0.572   3.792
  587SOL     OW 3767   0.061   0.561   5.122
  587SOL    HW1 3768   0.148   0.552   5.079
  587SOL    HW2 3769   0.075   0.635   5.183
  588SOL     OW 3770   0.567   0.222   4.893
  588SOL    HW1 3771   0.598   0.170   4.968
  588SOL    HW2 3772   0.472   0.227   4.910
  589SOL     OW 3773   0.875   0.434   4.390
  589SOL    HW1 3774   0.837   0.498   4.328
  589SOL    HW2 3775   0.900   0.360   4.332
  590SOL     OW 3776   0.997   0.007   4.489
  590SOL    HW1 3777   0.947   0.043   4.414
  590SOL    HW2 3778   0.942  11.035   4.519
  591SOL     OW 3779   1.419   1.185   4.606
  591SOL    HW1 3780   1.354   1.116   4.624
  591SOL    HW2 3781   1.404   1.202   4.512
  592SOL     OW 3782   1.484   0.604   4.695
  592SOL    HW1 3783   1.424   0.527   4.698
  592SOL    HW2 3784   1.537   0.593   4.777
  593SOL     OW 3785   1.847   0.807   4.109
  593SOL    HW1 3786   1.895   0.755   4.176
  593SOL    HW2 3787   1.826   0.737   4.043
  594SOL     OW 3788   0.518   1.413   3.841
  594SOL    HW1 3789   0.449   1.401   3.908
  594SOL    HW2 3790   0.476   1.376   3.763
  595SOL     OW 3791   1.654   1.291   4.376
  595SOL    HW1 3792   1.748   1.308   4.389
  595SOL    HW2 3793   1.611   1.370   4.414
  596SOL     OW 3794   1.416   0.604   3.789
  596SOL    HW1 3795   1.370   0.571   3.868
  596SOL    HW2 3796   1.501   0.559   3.796
  597SOL     OW 3797   0.525   0.244   4.026
  597SOL    HW1 3798   0.575   0.209   3.951
  597SOL    HW2 3799   0.503   0.333   3.993
  598SOL     OW 3800   1.734   1.233   5.317
  598SOL    HW1 3801   1.821   1.196   5.291
  598SOL    HW2 3802   1.758   1.327   5.326
  599SOL     OW 3803   1.064   1.373   5.066
  599SOL    HW1 3804   0.988   1.335   5.112
  599SOL    HW2 3805   1.138   1.317   5.099
  600SOL     OW 3806   1.614   1.644   5.363
  600SOL    HW1 3807   1.609   1.679   5.272
  600SOL    HW2 3808   1.697   1.593   5.358
  601SOL     OW 3809   1.136   1.220   4.832
  601SOL    HW1 3810   1.065   1.262   4.883
  601SOL    HW2 3811   1.124   1.261   4.744
  602SOL     OW 3812   1.594   1.090   4.794
  602SOL    HW1 3813   1.602   1.155   4.866
  602SOL    HW2 3814   1.535   1.138   4.733
  603SOL     OW 3815   0.914   0.114   5.132
  603SOL    HW1 3816   0.933   0.086   5.040
  603SOL    HW2 3817   1.002   0.139   5.164
  604SOL     OW 3818   0.992   1.120   5.459
  604SOL    HW1 3819   0.900   1.149   5.470
  604SOL    HW2 3820   0.984   1.044   5.398
  605SOL     OW 3821   0.712   1.049   4.073
  605SOL    HW1 3822   0.681   1.026   4.162
  605SOL    HW2 3823   0.795   0.997   4.066
  606SOL     OW 3824   0.386   0.809   4.965
  606SOL    HW1 3825   0.463   0.812   5.023
  606SOL    HW2 3826   0.362   0.715   4.970
  607SOL     OW 3827   1.274   0.394   4.980
  607SOL    HW1 3828   1.292   0.466   5.044
  607SOL    HW2 3829   1.182   0.411   4.953
  608SOL     OW 3830   0.040   1.571   5.098
  608SOL    HW1 3831   0.009   1.647   5.047
  608SOL    HW2 3832   0.136   1.586   5.101
  609SOL     OW 3833   0.352   1.117   4.208
  609SOL    HW1 3834   0.338   1.190   4.145
  609SOL    HW2 3835   0.334   1.040   4.151
  610SOL     OW 3836   0.529   0.552   4.554
  610SOL    HW1 3837   0.564   0.613   4.486
  610SOL    HW2 3838   0.593   0.564   4.627
  611SOL     OW 3839   1.230   1.335   4.117
  611SOL    HW1 3840   1.271   1.416   4.153
  611SOL    HW2 3841   1.140   1.343   4.154
  612SOL     OW 3842   1.299   1.475   4.892
  612SOL    HW1 3843   1.364   1.467   4.964
  612SOL    HW2 3844   1.243   1.397   4.902
  613SOL     OW 3845   1.580   0.629   4.190
  613SOL    HW1 3846   1.544   0.671   4.270
  613SOL    HW2 3847   1.613   0.703   4.138
  614SOL     OW 3848   0.329   1.522   5.028
  614SOL    HW1 3849   0.326   1.480   4.940
  614SOL    HW2 3850   0.425   1.540   5.034
  615SOL     OW 3851   0.413   0.732   5.323
  615SOL    HW1 3852   0.477   0.775   5.263
  615SOL    HW2 3853   0.432   0.639   5.305
  616SOL     OW 3854   1.625   0.768   5.410
  616SOL    HW1 3855   1.537   0.809   5.403
  616SOL    HW2 3856   1.669   0.809   5.331
  617SOL     OW 3857   0.997   0.123   5.479
  617SOL    HW1 3858   1.050   0.203   5.467
  617SOL    HW2 3859   1.060   0.056   5.447
  618SOL     OW 3860   0.485   0.060   5.468
  618SOL    HW1 3861   0.431   0.003   5.411
  618SOL    HW2 3862   0.420   0.125   5.500
  619SOL     OW 3863   0.627   0.877   4.781
  619SOL    HW1 3864   0.643   0.972   4.768
  619SOL    HW2 3865   0.538   0.876   4.818
  620SOL     OW 3866   1.336   0.856   4.753
  620SOL    HW1 3867   1.256   0.817   4.714
  620SOL    HW2 3868   1.398   0.781   4.754
  621SOL     OW 3869   1.231   0.521   3.983
  621SOL    HW1 3870   1.253   0.448   4.045
  621SOL    HW2 3871   1.162   0.567   4.033
  622SOL     OW 3872   0.299   0.205   4.970
  622SOL    HW1 3873   0.252   0.247   5.045
  622SOL    HW2 3874   0.255   0.119   4.965
  623SOL     OW 3875   0.058   1.305   5.014
  623SOL    HW1 3876   0.114   1.257   5.076
  623SOL    HW2 3877   0.058   1.397   5.047
  624SOL     OW 3878   0.714   0.604   4.748
  624SOL    HW1 3879   0.805   0.587   4.716
  624SOL    HW2 3880   0.706   0.701   4.748
  625SOL     OW 3881   1.689   0.962   5.592
  625SOL    HW1 3882   1.688   0.886   5.531
  625SOL    HW2 3883   1.693   1.037   5.531
  626SOL     OW 3884   0.300   0.045   4.326
  626SOL    HW1 3885   0.280   0.139   4.337
  626SOL    HW2 3886   0.299   0.018   4.419
  627SOL     OW 3887   1.598   0.397   4.052
  627SOL    HW1 3888   1.635   0.333   4.114
  627SOL    HW2 3889   1.584   0.476   4.109
  628SOL     OW 3890   1.083   0.749   4.690
  628SOL    HW1 3891   1.054   0.770   4.781
  628SOL    HW2 3892   1.039   0.662   4.677
  629SOL     OW 3893   0.982   1.572   5.421
  629SOL    HW1 3894   0.964   1.627   5.341
  629SOL    HW2 3895   1.015   1.490   5.381
  630SOL     OW 3896   1.847   1.501   5.323
  630SOL    HW1 3897   1.879   1.521   5.233
  630SOL    HW2 3898   1.927   1.518   5.376
  631SOL     OW 3899   0.357   0.891   5.539
  631SOL    HW1 3900   0.445   0.916   5.569
  631SOL    HW2 3901   0.377   0.826   5.469
  632SOL     OW 3902   1.523   0.249   3.834
  632SOL    HW1 3903   1.446   0.205   3.874
  632SOL    HW2 3904   1.559   0.301   3.909
  633SOL     OW 3905   1.286   0.837   3.750
  633SOL    HW1 3906   1.337   0.753   3.757
  633SOL    HW2 3907   1.312   0.866   3.660
  634SOL     OW 3908   1.072   1.347   4.590
  634SOL    HW1 3909   1.081   1.287   4.514
  634SOL    HW2 3910   1.127   1.425   4.565
  635SOL     OW 3911   0.280   0.836   4.670
  635SOL    HW1 3912   0.366   0.859   4.633
  635SOL    HW2 3913   0.294   0.745   4.701
  636SOL     OW 3914   0.331   0.551   4.723
  636SOL    HW1 3915   0.291   0.464   4.713
  636SOL    HW2 3916   0.404   0.547   4.656
  637SOL     OW 3917   1.164   0.369   5.406
  637SOL    HW1 3918   1.123   0.417   5.479
  637SOL    HW2 3919   1.252   0.413   5.401
  638SOL     OW 3920   1.159   0.221   5.183
  638SOL    HW1 3921   1.161   0.282   5.260
  638SOL    HW2 3922   1.195   0.277   5.112
  639SOL     OW 3923  11.068   1.329   3.857
  639SOL    HW1 3924  10.974   1.331   3.872
  639SOL    HW2 3925  11.101   1.278   3.933
  640SOL     OW 3926   0.123   1.796   4.676
  640SOL    HW1 3927   0.079   1.733   4.616
  640SOL    HW2 3928   0.211   1.805   4.633
  641SOL     OW 3929   0.503   1.576   4.633
  641SOL    HW1 3930   0.580   1.632   4.655
  641SOL    HW2 3931   0.543   1.509   4.575
  642SOL     OW 3932   0.958   0.763   4.937
  642SOL    HW1 3933   1.014   0.752   5.016
  642SOL    HW2 3934   0.870   0.769   4.975
  643SOL     OW 3935   0.002   0.603   4.807
  643SOL    HW1 3936   0.076   0.570   4.754
  643SOL    HW2 3937   0.025   0.574   4.895
  644SOL     OW 3938   0.217   0.515   5.452
  644SOL    HW1 3939   0.229   0.450   5.381
  644SOL    HW2 3940   0.185   0.592   5.402
  645SOL     OW 3941   1.365   0.921   5.368
  645SOL    HW1 3942   1.400   1.011   5.365
  645SOL    HW2 3943   1.372   0.895   5.274
  646SOL     OW 3944   0.809   0.572   4.112
  646SOL    HW1 3945   0.816   0.494   4.057
  646SOL    HW2 3946   0.732   0.618   4.075
  647SOL     OW 3947   1.647   0.599   4.919
  647SOL    HW1 3948   1.642   0.525   4.980
  647SOL    HW2 3949   1.738   0.591   4.883
  648SOL     OW 3950   0.274   1.541   5.448
  648SOL    HW1 3951   0.236   1.618   5.495
  648SOL    HW2 3952   0.252   1.467   5.508
  649SOL     OW 3953   0.699   0.466   4.980
  649SOL    HW1 3954   0.655   0.387   4.945
  649SOL    HW2 3955   0.695   0.526   4.903
  650SOL     OW 3956   0.904   1.695   5.192
  650SOL    HW1 3957   0.898   1.655   5.104
  650SOL    HW2 3958   0.891   1.789   5.175
  651SOL     OW 3959   0.471   0.491   3.912
  651SOL    HW1 3960   0.529   0.568   3.922
  651SOL    HW2 3961   0.383   0.535   3.910
  652SOL     OW 3962   0.171   1.125   5.214
  652SOL    HW1 3963   0.184   1.064   5.289
  652SOL    HW2 3964   0.177   1.066   5.136
  653SOL     OW 3965   1.315   1.043   4.949
  653SOL    HW1 3966   1.329   0.980   4.875
  653SOL    HW2 3967   1.254   1.107   4.907
  654SOL     OW 3968   1.322   0.842   4.019
  654SOL    HW1 3969   1.248   0.805   4.069
  654SOL    HW2 3970   1.294   0.838   3.926
  655SOL     OW 3971   1.755   1.752   4.862
  655SOL    HW1 3972   1.824   1.778   4.798
  655SOL    HW2 3973   1.746   1.657   4.842
  656SOL     OW 3974   1.243   1.734   4.859
  656SOL    HW1 3975   1.292   1.756   4.779
  656SOL    HW2 3976   1.252   1.636   4.862
  657SOL     OW 3977   0.087   1.291   4.735
  657SOL    HW1 3978   0.088   1.302   4.832
  657SOL    HW2 3979   0.017   1.226   4.722
  658SOL     OW 3980   0.671   1.643   5.462
  658SOL    HW1 3981   0.616   1.721   5.447
  658SOL    HW2 3982   0.748   1.663   5.407
  659SOL     OW 3983   1.697   0.112   4.228
  659SOL    HW1 3984   1.768   0.134   4.165
  659SOL    HW2 3985   1.744   0.056   4.292
  660SOL     OW 3986   1.359   1.574   4.195
  660SOL    HW1 3987   1.419   1.605   4.125
  660SOL    HW2 3988   1.315   1.656   4.224
  661SOL     OW 3989   0.173   1.783   5.561
  661SOL    HW1 3990   0.119   1.719   5.613
  661SOL    HW2 3991   0.215   1.834   5.633
  662SOL     OW 3992   1.273   0.894   4.375
  662SOL    HW1 3993   1.357   0.848   4.391
  662SOL    HW2 3994   1.303   0.981   4.342
  663SOL     OW 3995   0.813   1.261   5.156
  663SOL    HW1 3996   0.784   1.318   5.230
  663SOL    HW2 3997   0.741   1.276   5.093
  664SOL     OW 3998   0.672   1.632   3.871
  664SOL    HW1 3999   0.680   1.640   3.774
  664SOL    HW2 4000   0.622   1.548   3.877
  665SOL     OW 4001   1.619   1.723   5.109
  665SOL    HW1 4002   1.668   1.734   5.025
  665SOL    HW2 4003   1.611   1.815   5.140
  666SOL     OW 4004   1.862   0.121   4.673
  666SOL    HW1 4005   1.889   0.049   4.615
  666SOL    HW2 4006   1.779   0.153   4.631
  667SOL     OW 4007   0.264   0.304   4.428
  667SOL    HW1 4008   0.182   0.351   4.407
  667SOL    HW2 4009   0.268   0.313   4.525
  668SOL     OW 4010   1.181   1.620   3.755
  668SOL    HW1 4011   1.203   1.527   3.766
  668SOL    HW2 4012   1.118   1.620   3.680
  669SOL     OW 4013   0.809   0.991   5.107
  669SOL    HW1 4014   0.832   1.001   5.013
  669SOL    HW2 4015   0.820   1.083   5.139
  670SOL     OW 4016   0.932   0.909   3.998
  670SOL    HW1 4017   1.004   0.932   3.939
  670SOL    HW2 4018   0.968   0.834   4.049
  671SOL     OW 4019   1.511   1.588   3.765
  671SOL    HW1 4020   1.427   1.635   3.766
  671SOL    HW2 4021   1.544   1.605   3.674
  672SOL     OW 4022   0.387   1.289   5.191
  672SOL    HW1 4023   0.361   1.370   5.145
  672SOL    HW2 4024   0.308   1.234   5.187
  673SOL     OW 4025   1.605   1.295   4.981
  673SOL    HW1 4026   1.668   1.282   5.053
  673SOL    HW2 4027   1.547   1.366   5.017
  674SOL     OW 4028   1.042   1.127   4.431
  674SOL    HW1 4029   0.974   1.072   4.475
  674SOL    HW2 4030   1.100   1.060   4.393
  675SOL     OW 4031   1.038   0.242   4.703
  675SOL    HW1 4032   1.027   0.197   4.618
  675SOL    HW2 4033   1.026   0.168   4.765
  676SOL     OW 4034   0.592   1.459   4.202
  676SOL    HW1 4035   0.641   1.427   4.125
  676SOL    HW2 4036   0.502   1.466   4.170
  677SOL     OW 4037   1.712   0.376   5.109
  677SOL    HW1 4038   1.772   0.453   5.103
  677SOL    HW2 4039   1.755   0.312   5.050
  678SOL     OW 4040   0.125   0.993   5.459
  678SOL    HW1 4041   0.071   1.017   5.535
  678SOL    HW2 4042   0.207   0.958   5.501
  679SOL     OW 4043   0.677   0.223   5.207
  679SOL    HW1 4044   0.761   0.182   5.177
  679SOL    HW2 4045   0.697   0.240   5.300
  680SOL     OW 4046   0.084   0.344   3.776
  680SOL    HW1 4047  11.095   0.359   3.745
  680SOL    HW2 4048   0.128   0.419   3.734
  681SOL     OW 4049   1.445   0.854   5.116
  681SOL    HW1 4050   1.407   0.916   5.050
  681SOL    HW2 4051   1.540   0.869   5.104
  682SOL     OW 4052   0.079   0.150   4.022
  682SOL    HW1 4053   0.073   0.225   3.961
  682SOL    HW2 4054   0.169   0.116   4.005
  683SOL     OW 4055   1.209   1.337   3.843
  683SOL    HW1 4056   1.112   1.344   3.849
  683SOL    HW2 4057   1.233   1.351   3.937
  684SOL     OW 4058   0.604   0.801   5.128
  684SOL    HW1 4059   0.649   0.886   5.123
  684SOL    HW2 4060   0.682   0.741   5.133
  685SOL     OW 4061   1.498   1.827   4.690
  685SOL    HW1 4062   1.544   1.841   4.606
  685SOL    HW2 4063   1.556   1.768   4.738
  686SOL     OW 4064   0.764   0.598   5.495
  686SOL    HW1 4065   0.680   0.570   5.533
  686SOL    HW2 4066   0.794   0.516   5.454
  687SOL     OW 4067   1.467   1.174   5.342
  687SOL    HW1 4068   1.458   1.188   5.438
  687SOL    HW2 4069   1.560   1.200   5.328
  688SOL     OW 4070   0.394   1.728   5.291
  688SOL    HW1 4071   0.306   1.767   5.273
  688SOL    HW2 4072   0.366   1.644   5.334
  689SOL     OW 4073   1.686   0.890   4.949
  689SOL    HW1 4074   1.655   0.806   4.911
  689SOL    HW2 4075   1.645   0.958   4.892
  690SOL     OW 4076   1.244   0.317   4.172
  690SOL    HW1 4077   1.288   0.230   4.181
  690SOL    HW2 4078   1.265   0.360   4.257
  691SOL     OW 4079   0.596   0.747   4.377
  691SOL    HW1 4080   0.622   0.841   4.371
  691SOL    HW2 4081   0.530   0.738   4.308
  692SOL     OW 4082   1.765   0.376   5.369
  692SOL    HW1 4083   1.745   0.376   5.274
  692SOL    HW2 4084   1.696   0.315   5.401
  693SOL     OW 4085   1.720   0.925   5.217
  693SOL    HW1 4086   1.753   1.016   5.223
  693SOL    HW2 4087   1.743   0.902   5.125
  694SOL     OW 4088   0.898   1.362   3.748
  694SOL    HW1 4089   0.858   1.375   3.835
  694SOL    HW2 4090   0.904   1.453   3.712
  695SOL     OW 4091   0.669   1.804   4.639
  695SOL    HW1 4092   0.671   1.900   4.623
  695SOL    HW2 4093   0.762   1.780   4.651
  696SOL     OW 4094   0.875   0.954   4.557
  696SOL    HW1 4095   0.918   0.877   4.597
  696SOL    HW2 4096   0.855   1.010   4.634
  697SOL     OW 4097   1.081   1.007   3.765
  697SOL    HW1 4098   1.154   1.067   3.785
  697SOL    HW2 4099   1.131   0.924   3.749
  698SOL     OW 4100   1.869   1.544   4.558
  698SOL    HW1 4101   1.775   1.554   4.540
  698SOL    HW2 4102   1.868   1.493   4.641
  699SOL     OW 4103   0.233   1.310   5.573
  699SOL    HW1 4104   0.166   1.245   5.551
  699SOL    HW2 4105   0.229   1.312   5.671
  700SOL     OW 4106   0.084   1.222   4.383
  700SOL    HW1 4107   0.143   1.211   4.458
  700SOL    HW2 4108   0.143   1.209   4.308
  701SOL     OW 4109   0.678   1.397   5.346
  701SOL    HW1 4110   0.598   1.346   5.368
  701SOL    HW2 4111   0.661   1.483   5.390
  702SOL     OW 4112   1.822   0.198   4.939
  702SOL    HW1 4113   1.807   0.102   4.944
  702SOL    HW2 4114   1.835   0.207   4.843
  703SOL     OW 4115   0.442   0.395   4.238
  703SOL    HW1 4116   0.460   0.322   4.177
  703SOL    HW2 4117   0.389   0.353   4.309
  704SOL     OW 4118   1.732   1.485   4.808
  704SOL    HW1 4119   1.647   1.457   4.769
  704SOL    HW2 4120   1.733   1.429   4.887
  705SOL     OW 4121   0.322   0.539   5.011
  705SOL    HW1 4122   0.397   0.503   5.062
  705SOL    HW2 4123   0.345   0.520   4.919
  706SOL     OW 4124   0.822   1.594   4.398
  706SOL    HW1 4125   0.806   1.620   4.307
  706SOL    HW2 4126   0.749   1.533   4.416
  707SOL     OW 4127   1.429   0.243   4.822
  707SOL    HW1 4128   1.451   0.158   4.863
  707SOL    HW2 4129   1.382   0.291   4.893
  708SOL     OW 4130   0.988   0.005   4.880
  708SOL    HW1 4131   0.949  11.017   4.877
  708SOL    HW2 4132   1.083  11.086   4.874
  709SOL     OW 4133   0.782   1.317   4.027
  709SOL    HW1 4134   0.750   1.226   4.042
  709SOL    HW2 4135   0.838   1.332   4.105
  710SOL     OW 4136   0.597   1.556   5.001
  710SOL    HW1 4137   0.605   1.641   5.048
  710SOL    HW2 4138   0.688   1.547   4.968
  711SOL     OW 4139   1.326   0.071   3.906
  711SOL    HW1 4140   1.337  11.096   3.848
  711SOL    HW2 4141   1.234   0.060   3.936
  712SOL     OW 4142   1.277   0.463   4.398
  712SOL    HW1 4143   1.222   0.543   4.389
  712SOL    HW2 4144   1.262   0.437   4.491
  713SOL     OW 4145   1.622   0.212   4.593
  713SOL    HW1 4146   1.553   0.224   4.660
  713SOL    HW2 4147   1.614   0.295   4.542
  714SOL     OW 4148  11.090   1.077   4.051
  714SOL    HW1 4149   0.076   1.115   4.039
  714SOL    HW2 4150   0.009   0.981   4.051
  715SOL     OW 4151   0.893   1.646   4.056
  715SOL    HW1 4152   0.816   1.639   3.996
  715SOL    HW2 4153   0.872   1.726   4.108
  716SOL     OW 4154   0.245   0.615   5.712
  716SOL    HW1 4155   0.156   0.610   5.751
  716SOL    HW2 4156   0.232   0.583   5.621
  717SOL     OW 4157   0.219   0.291   6.573
  717SOL    HW1 4158   0.249   0.271   6.665
  717SOL    HW2 4159   0.153   0.220   6.560
  718SOL     OW 4160  11.094   0.385   6.235
  718SOL    HW1 4161  11.047   0.394   6.319
  718SOL    HW2 4162  11.058   0.302   6.200
  719SOL     OW 4163   0.581   1.301   6.771
  719SOL    HW1 4164   0.490   1.287   6.741
  719SOL    HW2 4165   0.575   1.391   6.807
  720SOL     OW 4166   1.542   1.520   6.306
  720SOL    HW1 4167   1.513   1.498   6.397
  720SOL    HW2 4168   1.460   1.521   6.254
  721SOL     OW 4169   1.119   0.689   6.284
  721SOL    HW1 4170   1.158   0.779   6.275
  721SOL    HW2 4171   1.090   0.690   6.376
  722SOL     OW 4172   1.771   0.600   5.810
  722SOL    HW1 4173   1.758   0.582   5.714
  722SOL    HW2 4174   1.727   0.523   5.848
  723SOL     OW 4175   0.747   1.160   6.614
  723SOL    HW1 4176   0.685   1.206   6.674
  723SOL    HW2 4177   0.789   1.237   6.572
  724SOL     OW 4178   0.901   0.773   7.400
  724SOL    HW1 4179   0.859   0.834   7.461
  724SOL    HW2 4180   0.928   0.832   7.326
  725SOL     OW 4181   0.691   1.006   6.231
  725SOL    HW1 4182   0.752   0.999   6.307
  725SOL    HW2 4183   0.619   1.062   6.267
  726SOL     OW 4184   0.708   1.164   7.381
  726SOL    HW1 4185   0.754   1.244   7.412
  726SOL    HW2 4186   0.622   1.198   7.351
  727SOL     OW 4187   0.322   1.424   6.669
  727SOL    HW1 4188   0.245   1.385   6.625
  727SOL    HW2 4189   0.364   1.477   6.598
  728SOL     OW 4190   1.462   1.504   6.966
  728SOL    HW1 4191   1.515   1.586   6.976
  728SOL    HW2 4192   1.389   1.519   7.029
  729SOL     OW 4193   0.463   0.409   7.085
  729SOL    HW1 4194   0.538   0.347   7.077
  729SOL    HW2 4195   0.386   0.350   7.080
  730SOL     OW 4196   1.590   0.468   6.317
  730SOL    HW1 4197   1.507   0.487   6.270
  730SOL    HW2 4198   1.583   0.527   6.394
  731SOL     OW 4199   0.232   1.672   6.067
  731SOL    HW1 4200   0.233   1.754   6.119
  731SOL    HW2 4201   0.279   1.701   5.987
  732SOL     OW 4202   1.136   1.351   7.259
  732SOL    HW1 4203   1.168   1.348   7.350
  732SOL    HW2 4204   1.089   1.266   7.254
  733SOL     OW 4205   0.225   1.402   6.099
  733SOL    HW1 4206   0.226   1.500   6.099
  733SOL    HW2 4207   0.155   1.384   6.165
  734SOL     OW 4208   0.266   1.114   6.484
  734SOL    HW1 4209   0.239   1.031   6.527
  734SOL    HW2 4210   0.210   1.179   6.530
  735SOL     OW 4211   0.616   1.800   7.000
  735SOL    HW1 4212   0.535   1.777   7.050
  735SOL    HW2 4213   0.632   1.892   7.026
  736SOL     OW 4214   0.631   0.979   5.687
  736SOL    HW1 4215   0.655   1.055   5.628
  736SOL    HW2 4216   0.653   1.017   5.774
  737SOL     OW 4217   1.593   0.104   7.075
  737SOL    HW1 4218   1.654   0.131   7.005
  737SOL    HW2 4219   1.597   0.178   7.137
  738SOL     OW 4220   0.131   0.647   6.135
  738SOL    HW1 4221   0.087   0.562   6.151
  738SOL    HW2 4222   0.110   0.698   6.216
  739SOL     OW 4223   1.842   1.736   5.943
  739SOL    HW1 4224   1.921   1.718   5.998
  739SOL    HW2 4225   1.859   1.827   5.916
  740SOL     OW 4226   0.056   1.597   5.712
  740SOL    HW1 4227   0.022   1.507   5.731
  740SOL    HW2 4228   0.027   1.648   5.788
  741SOL     OW 4229   1.689   0.912   6.193
  741SOL    HW1 4230   1.783   0.891   6.186
  741SOL    HW2 4231   1.680   0.985   6.130
  742SOL     OW 4232   1.647   1.123   6.019
  742SOL    HW1 4233   1.739   1.128   5.985
  742SOL    HW2 4234   1.651   1.189   6.091
  743SOL     OW 4235   0.122   0.731   7.169
  743SOL    HW1 4236   0.206   0.779   7.181
  743SOL    HW2 4237   0.060   0.801   7.143
  744SOL     OW 4238   0.630   1.394   6.345
  744SOL    HW1 4239   0.595   1.304   6.358
  744SOL    HW2 4240   0.610   1.406   6.250
  745SOL     OW 4241   1.279   1.232   7.008
  745SOL    HW1 4242   1.316   1.159   6.955
  745SOL    HW2 4243   1.327   1.222   7.092
  746SOL     OW 4244   0.819   0.019   6.101
  746SOL    HW1 4245   0.853   0.109   6.084
  746SOL    HW2 4246   0.726   0.024   6.072
  747SOL     OW 4247   0.175   0.997   6.826
  747SOL    HW1 4248   0.256   0.944   6.813
  747SOL    HW2 4249   0.104   0.936   6.801
  748SOL     OW 4250   1.166   1.799   7.195
  748SOL    HW1 4251   1.164   1.860   7.121
  748SOL    HW2 4252   1.191   1.716   7.153
  749SOL     OW 4253   0.332   0.241   7.458
  749SOL    HW1 4254   0.382   0.324   7.460
  749SOL    HW2 4255   0.239   0.271   7.463
  750SOL     OW 4256   1.476   1.433   6.554
  750SOL    HW1 4257   1.407   1.454   6.621
  750SOL    HW2 4258   1.452   1.341   6.530
  751SOL     OW 4259   1.657   1.739   6.192
  751SOL    HW1 4260   1.676   1.697   6.107
  751SOL    HW2 4261   1.625   1.664   6.245
  752SOL     OW 4262   0.597   0.726   5.839
  752SOL    HW1 4263   0.620   0.816   5.812
  752SOL    HW2 4264   0.530   0.743   5.908
  753SOL     OW 4265   1.264   0.372   6.498
  753SOL    HW1 4266   1.179   0.332   6.521
  753SOL    HW2 4267   1.323   0.324   6.560
  754SOL     OW 4268   1.562   1.650   5.888
  754SOL    HW1 4269   1.656   1.671   5.897
  754SOL    HW2 4270   1.555   1.647   5.790
  755SOL     OW 4271   0.816   0.617   7.039
  755SOL    HW1 4272   0.790   0.600   7.132
  755SOL    HW2 4273   0.769   0.546   6.991
  756SOL     OW 4274   1.408   0.500   7.258
  756SOL    HW1 4275   1.413   0.542   7.346
  756SOL    HW2 4276   1.463   0.420   7.270
  757SOL     OW 4277   0.964   0.913   7.173
  757SOL    HW1 4278   1.019   0.839   7.138
  757SOL    HW2 4279   0.910   0.933   7.094
  758SOL     OW 4280   0.990   0.388   6.817
  758SOL    HW1 4281   0.902   0.389   6.856
  758SOL    HW2 4282   0.977   0.337   6.737
  759SOL     OW 4283   1.042   0.695   6.013
  759SOL    HW1 4284   1.066   0.695   6.107
  759SOL    HW2 4285   0.956   0.648   6.014
  760SOL     OW 4286   0.081   0.815   6.340
  760SOL    HW1 4287   0.160   0.796   6.394
  760SOL    HW2 4288   0.045   0.890   6.390
  761SOL     OW 4289   0.131   1.793   7.161
  761SOL    HW1 4290   0.137   1.792   7.258
  761SOL    HW2 4291   0.113   1.886   7.142
  762SOL     OW 4292   0.872   0.344   5.800
  762SOL    HW1 4293   0.925   0.399   5.741
  762SOL    HW2 4294   0.868   0.261   5.751
  763SOL     OW 4295   1.724   0.572   7.418
  763SOL    HW1 4296   1.679   0.647   7.374
  763SOL    HW2 4297   1.740   0.512   7.343
  764SOL     OW 4298   1.350   1.152   6.143
  764SOL    HW1 4299   1.439   1.168   6.109
  764SOL    HW2 4300   1.299   1.221   6.096
  765SOL     OW 4301   0.571   0.199   6.453
  765SOL    HW1 4302   0.593   0.200   6.548
  765SOL    HW2 4303   0.557   0.293   6.435
  766SOL     OW 4304   0.986   1.446   6.076
  766SOL    HW1 4305   0.957   1.513   6.012
  766SOL    HW2 4306   0.987   1.496   6.159
  767SOL     OW 4307   0.374   1.810   6.428
  767SOL    HW1 4308   0.385   1.714   6.440
  767SOL    HW2 4309   0.464   1.840   6.447
  768SOL     OW 4310   1.800   1.037   6.464
  768SOL    HW1 4311   1.745   1.039   6.385
  768SOL    HW2 4312   1.735   1.040   6.536
  769SOL     OW 4313   1.220   1.554   7.088
  769SOL    HW1 4314   1.194   1.491   7.157
  769SOL    HW2 4315   1.175   1.515   7.011
  770SOL     OW 4316   0.327   0.960   5.838
  770SOL    HW1 4317   0.386   0.979   5.765
  770SOL    HW2 4318   0.290   0.873   5.816
  771SOL     OW 4319   1.476   0.758   6.300
  771SOL    HW1 4320   1.469   0.713   6.385
  771SOL    HW2 4321   1.556   0.812   6.310
  772SOL     OW 4322   0.466   1.274   7.308
  772SOL    HW1 4323   0.441   1.275   7.213
  772SOL    HW2 4324   0.381   1.295   7.349
  773SOL     OW 4325   1.112   1.775   5.827
  773SOL    HW1 4326   1.042   1.721   5.868
  773SOL    HW2 4327   1.129   1.725   5.744
  774SOL     OW 4328   0.212   0.284   7.063
  774SOL    HW1 4329   0.132   0.337   7.061
  774SOL    HW2 4330   0.181   0.204   7.111
  775SOL     OW 4331   1.620   1.364   5.693
  775SOL    HW1 4332   1.598   1.451   5.656
  775SOL    HW2 4333   1.562   1.303   5.644
  776SOL     OW 4334   0.455   1.741   5.908
  776SOL    HW1 4335   0.502   1.794   5.976
  776SOL    HW2 4336   0.527   1.712   5.850
  777SOL     OW 4337   1.397   0.093   6.034
  777SOL    HW1 4338   1.399   0.075   5.938
  777SOL    HW2 4339   1.491   0.100   6.056
  778SOL     OW 4340   0.247   1.784   6.808
  778SOL    HW1 4341   0.290   1.707   6.848
  778SOL    HW2 4342   0.219   1.751   6.722
  779SOL     OW 4343   0.952   1.694   6.482
  779SOL    HW1 4344   1.035   1.646   6.493
  779SOL    HW2 4345   0.912   1.648   6.405
  780SOL     OW 4346   0.392   0.661   6.057
  780SOL    HW1 4347   0.422   0.570   6.061
  780SOL    HW2 4348   0.300   0.655   6.091
  781SOL     OW 4349   1.539   0.244   7.303
  781SOL    HW1 4350   1.536   0.248   7.401
  781SOL    HW2 4351   1.480   0.169   7.289
  782SOL     OW 4352   0.618   0.152   5.698
  782SOL    HW1 4353   0.651   0.066   5.729
  782SOL    HW2 4354   0.578   0.126   5.613
  783SOL     OW 4355   0.757   0.282   7.343
  783SOL    HW1 4356   0.837   0.227   7.339
  783SOL    HW2 4357   0.710   0.244   7.419
  784SOL     OW 4358   0.875   1.545   6.781
  784SOL    HW1 4359   0.868   1.513   6.690
  784SOL    HW2 4360   0.940   1.484   6.821
  785SOL     OW 4361   1.319   0.583   7.025
  785SOL    HW1 4362   1.361   0.549   7.107
  785SOL    HW2 4363   1.376   0.660   7.006
  786SOL     OW 4364   0.841   1.399   6.533
  786SOL    HW1 4365   0.928   1.383   6.491
  786SOL    HW2 4366   0.782   1.410   6.456
  787SOL     OW 4367   0.946   0.531   6.490
  787SOL    HW1 4368   0.911   0.503   6.403
  787SOL    HW2 4369   0.976   0.446   6.526
  788SOL     OW 4370   0.551   0.093   6.089
  788SOL    HW1 4371   0.469   0.048   6.115
  788SOL    HW2 4372   0.570   0.142   6.169
  789SOL     OW 4373   1.434   1.183   5.606
  789SOL    HW1 4374   1.415   1.103   5.655
  789SOL    HW2 4375   1.364   1.243   5.639
  790SOL     OW 4376   0.326   0.068   5.809
  790SOL    HW1 4377   0.350   0.104   5.722
  790SOL    HW2 4378   0.365  11.081   5.808
  791SOL     OW 4379   0.945   0.255   6.067
  791SOL    HW1 4380   0.932   0.280   5.974
  791SOL    HW2 4381   1.042   0.258   6.075
  792SOL     OW 4382   1.096   0.719   7.052
  792SOL    HW1 4383   1.031   0.648   7.055
  792SOL    HW2 4384   1.180   0.669   7.044
  793SOL     OW 4385   1.236   1.583   6.373
  793SOL    HW1 4386   1.232   1.642   6.296
  793SOL    HW2 4387   1.304   1.625   6.427
  794SOL     OW 4388   0.469   1.159   6.311
  794SOL    HW1 4389   0.397   1.147   6.376
  794SOL    HW2 4390   0.423   1.138   6.227
  795SOL     OW 4391   1.261   1.807   6.182
  795SOL    HW1 4392   1.310   1.880   6.139
  795SOL    HW2 4393   1.205   1.854   6.244
  796SOL     OW 4394   1.083   0.555   5.611
  796SOL    HW1 4395   1.123   0.623   5.555
  796SOL    HW2 4396   1.146   0.550   5.685
  797SOL     OW 4397   0.047   0.545   6.981
  797SOL    HW1 4398   0.135   0.545   6.940
  797SOL    HW2 4399   0.058   0.616   7.047
  798SOL     OW 4400   0.573   0.217   6.755
  798SOL    HW1 4401   0.597   0.174   6.839
  798SOL    HW2 4402   0.477   0.229   6.767
  799SOL     OW 4403   0.873   0.440   6.251
  799SOL    HW1 4404   0.836   0.501   6.185
  799SOL    HW2 4405   0.900   0.364   6.198
  800SOL     OW 4406   0.974   0.019   6.365
  800SOL    HW1 4407   0.942   0.048   6.279
  800SOL    HW2 4408   0.936  11.031   6.373
  801SOL     OW 4409   1.424   1.179   6.474
  801SOL    HW1 4410   1.357   1.111   6.492
  801SOL    HW2 4411   1.433   1.172   6.378
  802SOL     OW 4412   1.483   0.601   6.549
  802SOL    HW1 4413   1.421   0.528   6.564
  802SOL    HW2 4414   1.541   0.595   6.627
  803SOL     OW 4415   1.836   0.802   5.964
  803SOL    HW1 4416   1.896   0.760   6.029
  803SOL    HW2 4417   1.827   0.731   5.897
  804SOL     OW 4418   0.506   1.386   5.743
  804SOL    HW1 4419   0.423   1.382   5.793
  804SOL    HW2 4420   0.476   1.380   5.652
  805SOL     OW 4421   1.666   1.281   6.238
  805SOL    HW1 4422   1.764   1.287   6.243
  805SOL    HW2 4423   1.638   1.369   6.270
  806SOL     OW 4424   1.412   0.596   5.655
  806SOL    HW1 4425   1.369   0.566   5.738
  806SOL    HW2 4426   1.496   0.549   5.660
  807SOL     OW 4427   1.754   1.229   7.139
  807SOL    HW1 4428   1.842   1.197   7.165
  807SOL    HW2 4429   1.761   1.324   7.159
  808SOL     OW 4430   1.053   1.378   6.937
  808SOL    HW1 4431   0.974   1.339   6.978
  808SOL    HW2 4432   1.124   1.319   6.970
  809SOL     OW 4433   1.616   1.617   7.236
  809SOL    HW1 4434   1.614   1.652   7.145
  809SOL    HW2 4435   1.696   1.561   7.234
  810SOL     OW 4436   1.133   1.236   6.691
  810SOL    HW1 4437   1.054   1.254   6.743
  810SOL    HW2 4438   1.110   1.271   6.604
  811SOL     OW 4439   1.600   1.095   6.663
  811SOL    HW1 4440   1.607   1.160   6.735
  811SOL    HW2 4441   1.536   1.138   6.604
  812SOL     OW 4442   0.908   0.113   6.978
  812SOL    HW1 4443   0.932   0.084   6.888
  812SOL    HW2 4444   0.994   0.134   7.016
  813SOL     OW 4445   1.011   1.127   7.327
  813SOL    HW1 4446   0.919   1.153   7.347
  813SOL    HW2 4447   0.996   1.052   7.265
  814SOL     OW 4448   0.715   1.044   5.943
  814SOL    HW1 4449   0.680   1.042   6.034
  814SOL    HW2 4450   0.790   0.984   5.950
  815SOL     OW 4451   0.397   0.826   6.828
  815SOL    HW1 4452   0.463   0.830   6.899
  815SOL    HW2 4453   0.360   0.737   6.843
  816SOL     OW 4454   1.275   0.405   6.836
  816SOL    HW1 4455   1.293   0.469   6.908
  816SOL    HW2 4456   1.179   0.414   6.823
  817SOL     OW 4457   0.029   1.567   6.957
  817SOL    HW1 4458   0.007   1.653   6.919
  817SOL    HW2 4459   0.121   1.580   6.983
  818SOL     OW 4460   0.354   1.101   6.079
  818SOL    HW1 4461   0.354   1.182   6.028
  818SOL    HW2 4462   0.338   1.031   6.013
  819SOL     OW 4463   0.533   0.539   6.407
  819SOL    HW1 4464   0.566   0.614   6.353
  819SOL    HW2 4465   0.585   0.551   6.490
  820SOL     OW 4466   1.224   1.337   5.982
  820SOL    HW1 4467   1.268   1.418   6.016
  820SOL    HW2 4468   1.133   1.352   6.012
  821SOL     OW 4469   1.292   1.473   6.750
  821SOL    HW1 4470   1.347   1.472   6.830
  821SOL    HW2 4471   1.237   1.394   6.761
  822SOL     OW 4472   1.595   0.648   6.049
  822SOL    HW1 4473   1.560   0.689   6.129
  822SOL    HW2 4474   1.683   0.687   6.040
  823SOL     OW 4475   0.321   1.517   6.915
  823SOL    HW1 4476   0.307   1.473   6.829
  823SOL    HW2 4477   0.415   1.542   6.907
  824SOL     OW 4478   0.435   0.728   7.198
  824SOL    HW1 4479   0.500   0.766   7.135
  824SOL    HW2 4480   0.455   0.634   7.189
  825SOL     OW 4481   1.624   0.779   7.270
  825SOL    HW1 4482   1.532   0.811   7.266
  825SOL    HW2 4483   1.663   0.824   7.192
  826SOL     OW 4484   1.001   0.130   7.354
  826SOL    HW1 4485   1.054   0.211   7.346
  826SOL    HW2 4486   1.063   0.066   7.317
  827SOL     OW 4487   0.479   0.052   7.324
  827SOL    HW1 4488   0.413  11.096   7.283
  827SOL    HW2 4489   0.422   0.123   7.362
  828SOL     OW 4490   0.620   0.880   6.628
  828SOL    HW1 4491   0.633   0.976   6.622
  828SOL    HW2 4492   0.547   0.872   6.690
  829SOL     OW 4493   1.362   0.879   6.613
  829SOL    HW1 4494   1.279   0.838   6.585
  829SOL    HW2 4495   1.418   0.802   6.624
  830SOL     OW 4496   1.230   0.518   5.855
  830SOL    HW1 4497   1.241   0.439   5.912
  830SOL    HW2 4498   1.167   0.570   5.908
  831SOL     OW 4499   0.293   0.214   6.818
  831SOL    HW1 4500   0.256   0.249   6.902
  831SOL    HW2 4501   0.276   0.120   6.829
  832SOL     OW 4502   0.085   1.307   6.860
  832SOL    HW1 4503   0.112   1.251   6.934
  832SOL    HW2 4504   0.058   1.390   6.903
  833SOL     OW 4505   0.704   0.600   6.609
  833SOL    HW1 4506   0.796   0.586   6.580
  833SOL    HW2 4507   0.698   0.697   6.614
  834SOL     OW 4508   1.765   0.962   7.429
  834SOL    HW1 4509   1.701   0.915   7.374
  834SOL    HW2 4510   1.714   0.966   7.512
  835SOL     OW 4511   0.289   0.057   6.195
  835SOL    HW1 4512   0.266   0.148   6.219
  835SOL    HW2 4513   0.300   0.018   6.283
  836SOL     OW 4514   1.597   0.398   5.923
  836SOL    HW1 4515   1.626   0.331   5.986
  836SOL    HW2 4516   1.584   0.477   5.979
  837SOL     OW 4517   1.089   0.750   6.562
  837SOL    HW1 4518   1.056   0.770   6.651
  837SOL    HW2 4519   1.041   0.667   6.544
  838SOL     OW 4520   0.975   1.567   7.280
  838SOL    HW1 4521   0.953   1.618   7.199
  838SOL    HW2 4522   1.011   1.484   7.245
  839SOL     OW 4523   1.854   1.481   7.186
  839SOL    HW1 4524   1.866   1.514   7.094
  839SOL    HW2 4525   1.937   1.511   7.227
  840SOL     OW 4526   0.351   0.889   7.395
  840SOL    HW1 4527   0.433   0.908   7.443
  840SOL    HW2 4528   0.381   0.823   7.330
  841SOL     OW 4529   1.488   0.283   5.691
  841SOL    HW1 4530   1.425   0.216   5.725
  841SOL    HW2 4531   1.539   0.308   5.770
  842SOL     OW 4532   1.321   0.844   5.614
  842SOL    HW1 4533   1.363   0.755   5.618
  842SOL    HW2 4534   1.333   0.867   5.518
  843SOL     OW 4535   1.081   1.359   6.441
  843SOL    HW1 4536   1.089   1.286   6.376
  843SOL    HW2 4537   1.143   1.427   6.408
  844SOL     OW 4538   0.274   0.822   6.536
  844SOL    HW1 4539   0.362   0.855   6.513
  844SOL    HW2 4540   0.293   0.741   6.586
  845SOL     OW 4541   0.333   0.539   6.585
  845SOL    HW1 4542   0.292   0.452   6.570
  845SOL    HW2 4543   0.399   0.541   6.513
  846SOL     OW 4544   1.169   0.375   7.274
  846SOL    HW1 4545   1.118   0.427   7.339
  846SOL    HW2 4546   1.254   0.423   7.275
  847SOL     OW 4547   1.165   0.226   7.050
  847SOL    HW1 4548   1.168   0.288   7.126
  847SOL    HW2 4549   1.199   0.281   6.978
  848SOL     OW 4550  11.089   1.339   5.777
  848SOL    HW1 4551  10.996   1.349   5.752
  848SOL    HW2 4552  11.090   1.248   5.814
  849SOL     OW 4553   0.137   1.799   6.547
  849SOL    HW1 4554   0.104   1.738   6.479
  849SOL    HW2 4555   0.223   1.825   6.507
  850SOL     OW 4556   0.488   1.568   6.493
  850SOL    HW1 4557   0.563   1.629   6.504
  850SOL    HW2 4558   0.528   1.496   6.441
  851SOL     OW 4559   0.958   0.766   6.809
  851SOL    HW1 4560   1.022   0.751   6.881
  851SOL    HW2 4561   0.874   0.753   6.855
  852SOL     OW 4562   0.010   0.512   6.648
  852SOL    HW1 4563   0.106   0.511   6.637
  852SOL    HW2 4564  -0.001   0.557   6.732
  853SOL     OW 4565   0.214   0.535   7.324
  853SOL    HW1 4566   0.233   0.469   7.257
  853SOL    HW2 4567   0.173   0.607   7.271
  854SOL     OW 4568   1.385   0.917   7.236
  854SOL    HW1 4569   1.406   1.013   7.232
  854SOL    HW2 4570   1.372   0.896   7.142
  855SOL     OW 4571   0.802   0.580   5.973
  855SOL    HW1 4572   0.822   0.505   5.915
  855SOL    HW2 4573   0.728   0.625   5.929
  856SOL     OW 4574   1.646   0.606   6.774
  856SOL    HW1 4575   1.632   0.531   6.834
  856SOL    HW2 4576   1.736   0.587   6.739
  857SOL     OW 4577   0.265   1.544   7.307
  857SOL    HW1 4578   0.232   1.618   7.359
  857SOL    HW2 4579   0.246   1.467   7.365
  858SOL     OW 4580   0.688   0.469   6.848
  858SOL    HW1 4581   0.650   0.387   6.814
  858SOL    HW2 4582   0.682   0.529   6.772
  859SOL     OW 4583   0.899   1.693   7.052
  859SOL    HW1 4584   0.884   1.659   6.963
  859SOL    HW2 4585   0.900   1.789   7.039
  860SOL     OW 4586   0.473   0.499   5.773
  860SOL    HW1 4587   0.524   0.581   5.786
  860SOL    HW2 4588   0.383   0.537   5.761
  861SOL     OW 4589   0.184   1.126   7.080
  861SOL    HW1 4590   0.170   1.069   7.159
  861SOL    HW2 4591   0.177   1.064   7.005
  862SOL     OW 4592   1.320   1.045   6.824
  862SOL    HW1 4593   1.336   0.992   6.743
  862SOL    HW2 4594   1.251   1.106   6.793
  863SOL     OW 4595   1.340   0.858   5.888
  863SOL    HW1 4596   1.262   0.825   5.935
  863SOL    HW2 4597   1.312   0.854   5.794
  864SOL     OW 4598   1.756   1.754   6.720
  864SOL    HW1 4599   1.833   1.771   6.663
  864SOL    HW2 4600   1.744   1.657   6.705
  865SOL     OW 4601   1.240   1.730   6.696
  865SOL    HW1 4602   1.326   1.755   6.659
  865SOL    HW2 4603   1.250   1.633   6.710
  866SOL     OW 4604   0.098   1.285   6.598
  866SOL    HW1 4605   0.098   1.300   6.695
  866SOL    HW2 4606   0.017   1.235   6.588
  867SOL     OW 4607   0.680   1.648   7.326
  867SOL    HW1 4608   0.619   1.722   7.309
  867SOL    HW2 4609   0.755   1.670   7.269
  868SOL     OW 4610   1.686   0.102   6.079
  868SOL    HW1 4611   1.763   0.120   6.023
  868SOL    HW2 4612   1.723   0.053   6.153
  869SOL     OW 4613   1.356   1.571   6.060
  869SOL    HW1 4614   1.425   1.589   5.992
  869SOL    HW2 4615   1.325   1.661   6.080
  870SOL     OW 4616   0.172   1.782   7.434
  870SOL    HW1 4617   0.120   1.715   7.482
  870SOL    HW2 4618   0.214   1.830   7.508
  871SOL     OW 4619   1.254   0.919   6.254
  871SOL    HW1 4620   1.337   0.871   6.273
  871SOL    HW2 4621   1.287   0.998   6.206
  872SOL     OW 4622   0.805   1.261   7.021
  872SOL    HW1 4623   0.773   1.309   7.101
  872SOL    HW2 4624   0.735   1.281   6.958
  873SOL     OW 4625   0.681   1.601   5.748
  873SOL    HW1 4626   0.674   1.618   5.652
  873SOL    HW2 4627   0.635   1.515   5.756
  874SOL     OW 4628   1.621   1.717   6.981
  874SOL    HW1 4629   1.665   1.735   6.896
  874SOL    HW2 4630   1.604   1.808   7.013
  875SOL     OW 4631   1.862   0.133   6.528
  875SOL    HW1 4632   1.870   0.048   6.482
  875SOL    HW2 4633   1.777   0.168   6.495
  876SOL     OW 4634   0.249   0.296   6.297
  876SOL    HW1 4635   0.164   0.342   6.283
  876SOL    HW2 4636   0.255   0.298   6.395
  877SOL     OW 4637   1.182   1.616   5.616
  877SOL    HW1 4638   1.202   1.522   5.620
  877SOL    HW2 4639   1.131   1.625   5.533
  878SOL     OW 4640   0.806   0.991   6.966
  878SOL    HW1 4641   0.819   1.000   6.871
  878SOL    HW2 4642   0.811   1.084   6.997
  879SOL     OW 4643   0.904   0.858   5.817
  879SOL    HW1 4644   0.978   0.916   5.790
  879SOL    HW2 4645   0.941   0.811   5.894
  880SOL     OW 4646   1.556   1.623   5.619
  880SOL    HW1 4647   1.461   1.635   5.609
  880SOL    HW2 4648   1.586   1.631   5.525
  881SOL     OW 4649   0.398   1.283   7.052
  881SOL    HW1 4650   0.362   1.365   7.015
  881SOL    HW2 4651   0.321   1.224   7.052
  882SOL     OW 4652   1.604   1.308   6.855
  882SOL    HW1 4653   1.645   1.279   6.937
  882SOL    HW2 4654   1.540   1.375   6.889
  883SOL     OW 4655   1.046   1.118   6.309
  883SOL    HW1 4656   0.974   1.067   6.351
  883SOL    HW2 4657   1.105   1.047   6.278
  884SOL     OW 4658   1.032   0.251   6.562
  884SOL    HW1 4659   1.010   0.205   6.479
  884SOL    HW2 4660   1.019   0.179   6.626
  885SOL     OW 4661   0.600   1.449   6.073
  885SOL    HW1 4662   0.655   1.419   5.998
  885SOL    HW2 4663   0.543   1.515   6.032
  886SOL     OW 4664   1.712   0.387   6.966
  886SOL    HW1 4665   1.779   0.457   6.960
  886SOL    HW2 4666   1.747   0.320   6.904
  887SOL     OW 4667   0.243   1.358   5.845
  887SOL    HW1 4668   0.147   1.373   5.832
  887SOL    HW2 4669   0.250   1.374   5.942
  888SOL     OW 4670   0.128   1.009   7.328
  888SOL    HW1 4671   0.061   0.952   7.367
  888SOL    HW2 4672   0.211   0.966   7.358
  889SOL     OW 4673   0.677   0.227   7.074
  889SOL    HW1 4674   0.758   0.180   7.047
  889SOL    HW2 4675   0.698   0.252   7.165
  890SOL     OW 4676   0.081   0.331   5.641
  890SOL    HW1 4677  11.089   0.311   5.627
  890SOL    HW2 4678   0.101   0.387   5.565
  891SOL     OW 4679   1.445   0.861   6.977
  891SOL    HW1 4680   1.401   0.924   6.917
  891SOL    HW2 4681   1.538   0.875   6.955
  892SOL     OW 4682   0.081   0.153   5.888
  892SOL    HW1 4683   0.074   0.228   5.828
  892SOL    HW2 4684   0.174   0.127   5.879
  893SOL     OW 4685   1.218   1.326   5.704
  893SOL    HW1 4686   1.122   1.328   5.702
  893SOL    HW2 4687   1.235   1.340   5.799
  894SOL     OW 4688   0.613   0.795   7.008
  894SOL    HW1 4689   0.665   0.877   7.014
  894SOL    HW2 4690   0.685   0.730   7.018
  895SOL     OW 4691   1.511   1.779   6.546
  895SOL    HW1 4692   1.542   1.833   6.472
  895SOL    HW2 4693   1.593   1.761   6.594
  896SOL     OW 4694   0.732   0.577   7.291
  896SOL    HW1 4695   0.782   0.632   7.354
  896SOL    HW2 4696   0.735   0.488   7.329
  897SOL     OW 4697   1.469   1.175   7.213
  897SOL    HW1 4698   1.459   1.188   7.310
  897SOL    HW2 4699   1.561   1.204   7.199
  898SOL     OW 4700   0.390   1.728   7.142
  898SOL    HW1 4701   0.303   1.771   7.130
  898SOL    HW2 4702   0.361   1.645   7.184
  899SOL     OW 4703   1.685   0.896   6.841
  899SOL    HW1 4704   1.683   0.808   6.801
  899SOL    HW2 4705   1.652   0.953   6.769
  900SOL     OW 4706   1.227   0.315   6.037
  900SOL    HW1 4707   1.281   0.234   6.042
  900SOL    HW2 4708   1.257   0.365   6.116
  901SOL     OW 4709   0.600   0.751   6.239
  901SOL    HW1 4710   0.638   0.841   6.238
  901SOL    HW2 4711   0.529   0.758   6.174
  902SOL     OW 4712   1.767   0.386   7.230
  902SOL    HW1 4713   1.744   0.378   7.136
  902SOL    HW2 4714   1.700   0.326   7.269
  903SOL     OW 4715   1.751   0.944   7.099
  903SOL    HW1 4716   1.747   1.041   7.090
  903SOL    HW2 4717   1.743   0.916   7.006
  904SOL     OW 4718   0.877   1.374   5.612
  904SOL    HW1 4719   0.844   1.389   5.702
  904SOL    HW2 4720   0.891   1.464   5.577
  905SOL     OW 4721   0.654   1.808   6.483
  905SOL    HW1 4722   0.648   1.906   6.479
  905SOL    HW2 4723   0.744   1.792   6.513
  906SOL     OW 4724   0.874   0.959   6.435
  906SOL    HW1 4725   0.912   0.886   6.485
  906SOL    HW2 4726   0.841   1.016   6.507
  907SOL     OW 4727   1.085   0.966   5.662
  907SOL    HW1 4728   1.073   1.041   5.600
  907SOL    HW2 4729   1.169   0.928   5.633
  908SOL     OW 4730   1.858   1.558   6.397
  908SOL    HW1 4731   1.762   1.555   6.396
  908SOL    HW2 4732   1.881   1.494   6.466
  909SOL     OW 4733   0.223   1.315   7.435
  909SOL    HW1 4734   0.174   1.237   7.405
  909SOL    HW2 4735   0.216   1.307   7.531
  910SOL     OW 4736   0.081   1.225   6.251
  910SOL    HW1 4737   0.096   1.179   6.334
  910SOL    HW2 4738   0.157   1.196   6.199
  911SOL     OW 4739   0.677   1.402   7.207
  911SOL    HW1 4740   0.596   1.356   7.234
  911SOL    HW2 4741   0.669   1.487   7.253
  912SOL     OW 4742   1.816   0.209   6.801
  912SOL    HW1 4743   1.851   0.136   6.857
  912SOL    HW2 4744   1.828   0.177   6.710
  913SOL     OW 4745   0.437   0.367   6.092
  913SOL    HW1 4746   0.349   0.335   6.119
  913SOL    HW2 4747   0.473   0.393   6.179
  914SOL     OW 4748   1.718   1.495   6.675
  914SOL    HW1 4749   1.634   1.477   6.632
  914SOL    HW2 4750   1.712   1.435   6.751
  915SOL     OW 4751   0.318   0.570   6.886
  915SOL    HW1 4752   0.377   0.529   6.951
  915SOL    HW2 4753   0.351   0.535   6.802
  916SOL     OW 4754   0.832   1.594   6.261
  916SOL    HW1 4755   0.816   1.648   6.182
  916SOL    HW2 4756   0.753   1.538   6.267
  917SOL     OW 4757   1.421   0.250   6.676
  917SOL    HW1 4758   1.458   0.176   6.724
  917SOL    HW2 4759   1.376   0.302   6.748
  918SOL     OW 4760   0.982   0.012   6.737
  918SOL    HW1 4761   0.937  11.028   6.734
  918SOL    HW2 4762   1.075  11.088   6.719
  919SOL     OW 4763   0.789   1.336   5.897
  919SOL    HW1 4764   0.756   1.245   5.904
  919SOL    HW2 4765   0.854   1.341   5.969
  920SOL     OW 4766   0.590   1.560   6.863
  920SOL    HW1 4767   0.596   1.645   6.910
  920SOL    HW2 4768   0.682   1.550   6.835
  921SOL     OW 4769   1.324   0.071   5.759
  921SOL    HW1 4770   1.340  11.094   5.704
  921SOL    HW2 4771   1.235   0.053   5.794
  922SOL     OW 4772   1.278   0.463   6.252
  922SOL    HW1 4773   1.224   0.544   6.252
  922SOL    HW2 4774   1.267   0.430   6.344
  923SOL     OW 4775   1.616   0.220   6.445
  923SOL    HW1 4776   1.547   0.225   6.512
  923SOL    HW2 4777   1.603   0.304   6.397
  924SOL     OW 4778   0.043   1.076   5.874
  924SOL    HW1 4779   0.140   1.079   5.871
  924SOL    HW2 4780   0.028   0.981   5.893
  925SOL     OW 4781   0.897   1.644   5.916
  925SOL    HW1 4782   0.821   1.626   5.856
  925SOL    HW2 4783   0.868   1.723   5.966
  926SOL     OW 4784   0.252   0.634   7.577
  926SOL    HW1 4785   0.161   0.627   7.608
  926SOL    HW2 4786   0.247   0.612   7.483
  927SOL     OW 4787   0.223   0.291   8.439
  927SOL    HW1 4788   0.253   0.273   8.530
  927SOL    HW2 4789   0.160   0.219   8.425
  928SOL     OW 4790  11.100   0.381   8.096
  928SOL    HW1 4791  11.053   0.382   8.180
  928SOL    HW2 4792  11.070   0.297   8.057
  929SOL     OW 4793   0.584   1.307   8.625
  929SOL    HW1 4794   0.497   1.289   8.588
  929SOL    HW2 4795   0.571   1.394   8.667
  930SOL     OW 4796   1.534   1.548   8.155
  930SOL    HW1 4797   1.497   1.525   8.242
  930SOL    HW2 4798   1.460   1.534   8.093
  931SOL     OW 4799   1.133   0.692   8.151
  931SOL    HW1 4800   1.160   0.785   8.136
  931SOL    HW2 4801   1.106   0.696   8.244
  932SOL     OW 4802   1.777   0.612   7.678
  932SOL    HW1 4803   1.754   0.595   7.584
  932SOL    HW2 4804   1.748   0.529   7.718
  933SOL     OW 4805   0.776   1.165   8.505
  933SOL    HW1 4806   0.701   1.211   8.548
  933SOL    HW2 4807   0.810   1.237   8.448
  934SOL     OW 4808   0.895   0.754   9.236
  934SOL    HW1 4809   0.854   0.818   9.296
  934SOL    HW2 4810   0.918   0.809   9.159
  935SOL     OW 4811   0.685   1.015   8.092
  935SOL    HW1 4812   0.750   1.002   8.163
  935SOL    HW2 4813   0.613   1.063   8.137
  936SOL     OW 4814   0.711   1.164   9.246
  936SOL    HW1 4815   0.755   1.245   9.278
  936SOL    HW2 4816   0.626   1.196   9.211
  937SOL     OW 4817   0.328   1.427   8.522
  937SOL    HW1 4818   0.251   1.394   8.473
  937SOL    HW2 4819   0.372   1.483   8.456
  938SOL     OW 4820   1.464   1.500   8.824
  938SOL    HW1 4821   1.517   1.582   8.834
  938SOL    HW2 4822   1.397   1.512   8.893
  939SOL     OW 4823   0.454   0.392   8.988
  939SOL    HW1 4824   0.531   0.342   8.957
  939SOL    HW2 4825   0.381   0.356   8.935
  940SOL     OW 4826   1.604   0.461   8.188
  940SOL    HW1 4827   1.554   0.494   8.113
  940SOL    HW2 4828   1.594   0.532   8.253
  941SOL     OW 4829   0.230   1.673   7.921
  941SOL    HW1 4830   0.234   1.756   7.972
  941SOL    HW2 4831   0.265   1.699   7.836
  942SOL     OW 4832   1.128   1.352   9.117
  942SOL    HW1 4833   1.166   1.346   9.205
  942SOL    HW2 4834   1.084   1.266   9.112
  943SOL     OW 4835   0.234   1.405   7.967
  943SOL    HW1 4836   0.228   1.502   7.959
  943SOL    HW2 4837   0.167   1.386   8.035
  944SOL     OW 4838   0.266   1.118   8.351
  944SOL    HW1 4839   0.246   1.034   8.397
  944SOL    HW2 4840   0.202   1.179   8.389
  945SOL     OW 4841   0.614   1.812   8.849
  945SOL    HW1 4842   0.541   1.784   8.907
  945SOL    HW2 4843   0.636   1.901   8.882
  946SOL     OW 4844   0.579   0.991   7.559
  946SOL    HW1 4845   0.625   1.045   7.492
  946SOL    HW2 4846   0.624   1.020   7.640
  947SOL     OW 4847   1.638   0.135   8.945
  947SOL    HW1 4848   1.605   0.128   8.855
  947SOL    HW2 4849   1.574   0.193   8.988
  948SOL     OW 4850   0.119   0.639   7.997
  948SOL    HW1 4851   0.091   0.548   8.015
  948SOL    HW2 4852   0.105   0.684   8.082
  949SOL     OW 4853   1.884   1.744   7.812
  949SOL    HW1 4854   1.826   1.737   7.891
  949SOL    HW2 4855   1.867   1.835   7.782
  950SOL     OW 4856   0.056   1.592   7.574
  950SOL    HW1 4857   0.025   1.502   7.593
  950SOL    HW2 4858   0.010   1.644   7.641
  951SOL     OW 4859   1.686   0.932   8.097
  951SOL    HW1 4860   1.757   0.882   8.056
  951SOL    HW2 4861   1.647   0.978   8.021
  952SOL     OW 4862   1.641   1.128   7.888
  952SOL    HW1 4863   1.732   1.123   7.855
  952SOL    HW2 4864   1.650   1.193   7.961
  953SOL     OW 4865   0.122   0.733   9.037
  953SOL    HW1 4866   0.213   0.768   9.031
  953SOL    HW2 4867   0.068   0.809   9.009
  954SOL     OW 4868   0.614   1.393   8.206
  954SOL    HW1 4869   0.571   1.305   8.215
  954SOL    HW2 4870   0.598   1.407   8.110
  955SOL     OW 4871   1.278   1.229   8.868
  955SOL    HW1 4872   1.308   1.158   8.809
  955SOL    HW2 4873   1.336   1.216   8.946
  956SOL     OW 4874   0.821   0.009   7.969
  956SOL    HW1 4875   0.849   0.101   7.948
  956SOL    HW2 4876   0.724   0.015   7.962
  957SOL     OW 4877   0.161   1.001   8.687
  957SOL    HW1 4878   0.249   0.957   8.680
  957SOL    HW2 4879   0.103   0.930   8.659
  958SOL     OW 4880   1.558   0.958   7.625
  958SOL    HW1 4881   1.479   0.903   7.642
  958SOL    HW2 4882   1.576   0.994   7.713
  959SOL     OW 4883   1.172   1.798   9.067
  959SOL    HW1 4884   1.165   1.862   8.995
  959SOL    HW2 4885   1.200   1.718   9.020
  960SOL     OW 4886   0.335   0.240   9.321
  960SOL    HW1 4887   0.386   0.321   9.308
  960SOL    HW2 4888   0.244   0.273   9.331
  961SOL     OW 4889   1.474   1.431   8.411
  961SOL    HW1 4890   1.408   1.450   8.480
  961SOL    HW2 4891   1.447   1.342   8.380
  962SOL     OW 4892   1.686   1.722   8.007
  962SOL    HW1 4893   1.626   1.693   7.936
  962SOL    HW2 4894   1.651   1.669   8.081
  963SOL     OW 4895   0.592   0.726   7.703
  963SOL    HW1 4896   0.603   0.813   7.662
  963SOL    HW2 4897   0.526   0.742   7.772
  964SOL     OW 4898   1.264   0.379   8.365
  964SOL    HW1 4899   1.180   0.332   8.385
  964SOL    HW2 4900   1.325   0.332   8.424
  965SOL     OW 4901   1.567   1.649   7.760
  965SOL    HW1 4902   1.661   1.633   7.752
  965SOL    HW2 4903   1.544   1.663   7.666
  966SOL     OW 4904   0.827   0.607   8.905
  966SOL    HW1 4905   0.786   0.594   8.993
  966SOL    HW2 4906   0.773   0.548   8.848
  967SOL     OW 4907   1.397   0.495   9.119
  967SOL    HW1 4908   1.402   0.546   9.201
  967SOL    HW2 4909   1.458   0.421   9.136
  968SOL     OW 4910   0.977   0.915   9.027
  968SOL    HW1 4911   1.027   0.839   8.991
  968SOL    HW2 4912   0.920   0.937   8.950
  969SOL     OW 4913   0.991   0.388   8.681
  969SOL    HW1 4914   0.904   0.411   8.717
  969SOL    HW2 4915   0.967   0.335   8.604
  970SOL     OW 4916   1.048   0.697   7.881
  970SOL    HW1 4917   1.068   0.695   7.977
  970SOL    HW2 4918   0.962   0.652   7.876
  971SOL     OW 4919   0.081   0.813   8.207
  971SOL    HW1 4920   0.164   0.792   8.255
  971SOL    HW2 4921   0.057   0.896   8.254
  972SOL     OW 4922   0.137   1.827   9.023
  972SOL    HW1 4923   0.135   1.806   9.119
  972SOL    HW2 4924   0.045   1.843   9.001
  973SOL     OW 4925   0.872   0.342   7.673
  973SOL    HW1 4926   0.918   0.402   7.612
  973SOL    HW2 4927   0.861   0.264   7.617
  974SOL     OW 4928   1.711   0.564   9.283
  974SOL    HW1 4929   1.681   0.648   9.242
  974SOL    HW2 4930   1.736   0.513   9.203
  975SOL     OW 4931   1.365   1.146   8.005
  975SOL    HW1 4932   1.441   1.143   7.947
  975SOL    HW2 4933   1.309   1.213   7.961
  976SOL     OW 4934   0.561   0.206   8.321
  976SOL    HW1 4935   0.576   0.212   8.417
  976SOL    HW2 4936   0.555   0.299   8.296
  977SOL     OW 4937   0.997   1.450   7.927
  977SOL    HW1 4938   0.958   1.518   7.870
  977SOL    HW2 4939   1.000   1.495   8.013
  978SOL     OW 4940   0.376   1.822   8.283
  978SOL    HW1 4941   0.399   1.728   8.300
  978SOL    HW2 4942   0.459   1.866   8.307
  979SOL     OW 4943   1.811   1.053   8.333
  979SOL    HW1 4944   1.763   1.034   8.251
  979SOL    HW2 4945   1.741   1.045   8.400
  980SOL     OW 4946   1.222   1.563   8.950
  980SOL    HW1 4947   1.204   1.500   9.021
  980SOL    HW2 4948   1.173   1.521   8.877
  981SOL     OW 4949   0.322   0.958   7.695
  981SOL    HW1 4950   0.393   0.983   7.634
  981SOL    HW2 4951   0.290   0.874   7.658
  982SOL     OW 4952   1.482   0.754   8.159
  982SOL    HW1 4953   1.468   0.713   8.246
  982SOL    HW2 4954   1.552   0.819   8.177
  983SOL     OW 4955   0.463   1.264   9.171
  983SOL    HW1 4956   0.437   1.261   9.077
  983SOL    HW2 4957   0.378   1.283   9.214
  984SOL     OW 4958   1.116   1.769   7.688
  984SOL    HW1 4959   1.042   1.721   7.730
  984SOL    HW2 4960   1.123   1.725   7.601
  985SOL     OW 4961   0.198   0.293   8.923
  985SOL    HW1 4962   0.123   0.353   8.933
  985SOL    HW2 4963   0.167   0.214   8.973
  986SOL     OW 4964   1.624   1.373   7.548
  986SOL    HW1 4965   1.575   1.450   7.515
  986SOL    HW2 4966   1.564   1.300   7.522
  987SOL     OW 4967   0.469   1.727   7.766
  987SOL    HW1 4968   0.509   1.783   7.835
  987SOL    HW2 4969   0.546   1.696   7.715
  988SOL     OW 4970   1.402   0.087   7.897
  988SOL    HW1 4971   1.398   0.077   7.801
  988SOL    HW2 4972   1.496   0.099   7.916
  989SOL     OW 4973   0.254   1.789   8.672
  989SOL    HW1 4974   0.296   1.710   8.708
  989SOL    HW2 4975   0.230   1.761   8.582
  990SOL     OW 4976   0.951   1.702   8.337
  990SOL    HW1 4977   1.024   1.646   8.368
  990SOL    HW2 4978   0.913   1.648   8.266
  991SOL     OW 4979   0.390   0.658   7.929
  991SOL    HW1 4980   0.420   0.565   7.932
  991SOL    HW2 4981   0.295   0.647   7.947
  992SOL     OW 4982   1.539   0.254   9.173
  992SOL    HW1 4983   1.536   0.261   9.271
  992SOL    HW2 4984   1.503   0.165   9.163
  993SOL     OW 4985   0.628   0.110   7.536
  993SOL    HW1 4986   0.647   0.022   7.573
  993SOL    HW2 4987   0.579   0.087   7.455
  994SOL     OW 4988   0.739   0.273   9.205
  994SOL    HW1 4989   0.825   0.228   9.205
  994SOL    HW2 4990   0.696   0.237   9.284
  995SOL     OW 4991   0.874   1.528   8.634
  995SOL    HW1 4992   0.860   1.493   8.545
  995SOL    HW2 4993   0.931   1.461   8.676
  996SOL     OW 4994   1.325   0.595   8.883
  996SOL    HW1 4995   1.364   0.558   8.965
  996SOL    HW2 4996   1.380   0.673   8.867
  997SOL     OW 4997   0.833   1.403   8.390
  997SOL    HW1 4998   0.915   1.390   8.339
  997SOL    HW2 4999   0.764   1.401   8.321
  998SOL     OW 5000   0.955   0.526   8.354
  998SOL    HW1 5001   0.917   0.503   8.266
  998SOL    HW2 5002   0.986   0.440   8.384
  999SOL     OW 5003   0.556   0.033   7.959
  999SOL    HW1 5004   0.469   0.034   8.003
  999SOL    HW2 5005   0.546   0.106   7.896
 1000SOL     OW 5006   1.446   1.189   7.480
 1000SOL    HW1 5007   1.462   1.108   7.532
 1000SOL    HW2 5008   1.357   1.214   7.508
 1001SOL     OW 5009   0.314   0.033   7.648
 1001SOL    HW1 5010   0.350   0.113   7.606
 1001SOL    HW2 5011   0.395  11.085   7.669
 1002SOL     OW 5012   0.926   0.254   7.923
 1002SOL    HW1 5013   0.899   0.289   7.836
 1002SOL    HW2 5014   1.023   0.259   7.917
 1003SOL     OW 5015   1.093   0.714   8.902
 1003SOL    HW1 5016   1.026   0.643   8.908
 1003SOL    HW2 5017   1.177   0.665   8.897
 1004SOL     OW 5018   1.238   1.567   8.232
 1004SOL    HW1 5019   1.224   1.625   8.156
 1004SOL    HW2 5020   1.302   1.616   8.285
 1005SOL     OW 5021   0.464   1.165   8.177
 1005SOL    HW1 5022   0.390   1.146   8.239
 1005SOL    HW2 5023   0.423   1.146   8.090
 1006SOL     OW 5024   1.253   1.816   8.043
 1006SOL    HW1 5025   1.305   1.890   8.005
 1006SOL    HW2 5026   1.201   1.862   8.111
 1007SOL     OW 5027   1.067   0.548   7.458
 1007SOL    HW1 5028   1.012   0.627   7.446
 1007SOL    HW2 5029   1.130   0.575   7.526
 1008SOL     OW 5030   0.047   0.557   8.838
 1008SOL    HW1 5031   0.135   0.539   8.802
 1008SOL    HW2 5032   0.065   0.622   8.908
 1009SOL     OW 5033   0.570   0.215   8.618
 1009SOL    HW1 5034   0.600   0.178   8.702
 1009SOL    HW2 5035   0.475   0.229   8.634
 1010SOL     OW 5036   0.878   0.445   8.107
 1010SOL    HW1 5037   0.834   0.506   8.046
 1010SOL    HW2 5038   0.892   0.366   8.052
 1011SOL     OW 5039   0.980   0.009   8.228
 1011SOL    HW1 5040   0.943   0.045   8.146
 1011SOL    HW2 5041   0.937  11.024   8.234
 1012SOL     OW 5042   1.426   1.184   8.324
 1012SOL    HW1 5043   1.383   1.101   8.349
 1012SOL    HW2 5044   1.423   1.179   8.227
 1013SOL     OW 5045   1.476   0.614   8.422
 1013SOL    HW1 5046   1.418   0.537   8.424
 1013SOL    HW2 5047   1.532   0.601   8.502
 1014SOL     OW 5048   1.841   0.824   7.832
 1014SOL    HW1 5049   1.891   0.772   7.898
 1014SOL    HW2 5050   1.816   0.753   7.768
 1015SOL     OW 5051   0.498   1.416   7.577
 1015SOL    HW1 5052   0.418   1.395   7.628
 1015SOL    HW2 5053   0.478   1.377   7.492
 1016SOL     OW 5054   1.677   1.301   8.099
 1016SOL    HW1 5055   1.773   1.301   8.114
 1016SOL    HW2 5056   1.646   1.382   8.142
 1017SOL     OW 5057   1.423   0.600   7.513
 1017SOL    HW1 5058   1.369   0.573   7.590
 1017SOL    HW2 5059   1.501   0.544   7.524
 1018SOL     OW 5060   0.521   0.245   7.751
 1018SOL    HW1 5061   0.571   0.208   7.676
 1018SOL    HW2 5062   0.498   0.334   7.716
 1019SOL     OW 5063   1.734   1.231   9.027
 1019SOL    HW1 5064   1.824   1.194   9.025
 1019SOL    HW2 5065   1.753   1.325   9.039
 1020SOL     OW 5066   1.056   1.380   8.802
 1020SOL    HW1 5067   0.975   1.340   8.840
 1020SOL    HW2 5068   1.125   1.319   8.835
 1021SOL     OW 5069   1.609   1.603   9.086
 1021SOL    HW1 5070   1.611   1.640   8.996
 1021SOL    HW2 5071   1.693   1.553   9.088
 1022SOL     OW 5072   1.133   1.230   8.553
 1022SOL    HW1 5073   1.048   1.242   8.597
 1022SOL    HW2 5074   1.115   1.264   8.464
 1023SOL     OW 5075   1.599   1.089   8.514
 1023SOL    HW1 5076   1.608   1.152   8.588
 1023SOL    HW2 5077   1.539   1.138   8.455
 1024SOL     OW 5078   0.919   0.103   8.860
 1024SOL    HW1 5079   0.935   0.079   8.767
 1024SOL    HW2 5080   1.007   0.132   8.889
 1025SOL     OW 5081   0.999   1.121   9.192
 1025SOL    HW1 5082   0.904   1.138   9.205
 1025SOL    HW2 5083   0.997   1.047   9.127
 1026SOL     OW 5084   0.711   1.059   7.802
 1026SOL    HW1 5085   0.687   1.038   7.894
 1026SOL    HW2 5086   0.792   1.006   7.790
 1027SOL     OW 5087   1.269   0.408   8.697
 1027SOL    HW1 5088   1.285   0.476   8.767
 1027SOL    HW2 5089   1.172   0.414   8.684
 1028SOL     OW 5090   0.025   1.581   8.837
 1028SOL    HW1 5091   0.004   1.655   8.778
 1028SOL    HW2 5092   0.122   1.586   8.842
 1029SOL     OW 5093   0.356   1.114   7.938
 1029SOL    HW1 5094   0.352   1.184   7.871
 1029SOL    HW2 5095   0.336   1.034   7.887
 1030SOL     OW 5096   0.538   0.522   8.285
 1030SOL    HW1 5097   0.571   0.584   8.218
 1030SOL    HW2 5098   0.594   0.544   8.361
 1031SOL     OW 5099   1.234   1.336   7.837
 1031SOL    HW1 5100   1.274   1.415   7.876
 1031SOL    HW2 5101   1.142   1.345   7.869
 1032SOL     OW 5102   1.291   1.469   8.614
 1032SOL    HW1 5103   1.343   1.463   8.697
 1032SOL    HW2 5104   1.232   1.393   8.622
 1033SOL     OW 5105   1.589   0.632   7.919
 1033SOL    HW1 5106   1.538   0.679   7.987
 1033SOL    HW2 5107   1.604   0.699   7.852
 1034SOL     OW 5108   0.322   1.519   8.768
 1034SOL    HW1 5109   0.318   1.473   8.682
 1034SOL    HW2 5110   0.416   1.545   8.769
 1035SOL     OW 5111   0.420   0.724   9.053
 1035SOL    HW1 5112   0.493   0.775   9.012
 1035SOL    HW2 5113   0.454   0.634   9.040
 1036SOL     OW 5114   1.630   0.771   9.136
 1036SOL    HW1 5115   1.540   0.808   9.137
 1036SOL    HW2 5116   1.668   0.817   9.057
 1037SOL     OW 5117   1.005   0.138   9.217
 1037SOL    HW1 5118   1.060   0.216   9.198
 1037SOL    HW2 5119   1.061   0.068   9.181
 1038SOL     OW 5120   0.482   0.054   9.187
 1038SOL    HW1 5121   0.423   0.011   9.124
 1038SOL    HW2 5122   0.425   0.126   9.222
 1039SOL     OW 5123   0.630   0.880   8.493
 1039SOL    HW1 5124   0.635   0.976   8.497
 1039SOL    HW2 5125   0.557   0.860   8.556
 1040SOL     OW 5126   1.344   0.877   8.463
 1040SOL    HW1 5127   1.259   0.834   8.443
 1040SOL    HW2 5128   1.403   0.800   8.462
 1041SOL     OW 5129   1.240   0.520   7.707
 1041SOL    HW1 5130   1.250   0.442   7.766
 1041SOL    HW2 5131   1.175   0.573   7.757
 1042SOL     OW 5132   0.284   0.189   8.686
 1042SOL    HW1 5133   0.257   0.243   8.764
 1042SOL    HW2 5134   0.274   0.099   8.719
 1043SOL     OW 5135   0.059   1.316   8.726
 1043SOL    HW1 5136   0.106   1.259   8.789
 1043SOL    HW2 5137   0.051   1.400   8.773
 1044SOL     OW 5138   0.715   0.606   8.471
 1044SOL    HW1 5139   0.807   0.593   8.441
 1044SOL    HW2 5140   0.703   0.703   8.468
 1045SOL     OW 5141   1.768   0.965   9.292
 1045SOL    HW1 5142   1.718   0.903   9.235
 1045SOL    HW2 5143   1.708   0.974   9.367
 1046SOL     OW 5144   0.288   0.058   8.052
 1046SOL    HW1 5145   0.274   0.153   8.071
 1046SOL    HW2 5146   0.298   0.024   8.142
 1047SOL     OW 5147   1.599   0.393   7.775
 1047SOL    HW1 5148   1.623   0.321   7.834
 1047SOL    HW2 5149   1.591   0.469   7.836
 1048SOL     OW 5150   1.089   0.748   8.420
 1048SOL    HW1 5151   1.055   0.768   8.509
 1048SOL    HW2 5152   1.044   0.662   8.404
 1049SOL     OW 5153   0.974   1.567   9.146
 1049SOL    HW1 5154   0.962   1.618   9.063
 1049SOL    HW2 5155   1.012   1.483   9.115
 1050SOL     OW 5156   1.846   1.488   9.052
 1050SOL    HW1 5157   1.872   1.516   8.963
 1050SOL    HW2 5158   1.924   1.514   9.104
 1051SOL     OW 5159   0.357   0.893   9.248
 1051SOL    HW1 5160   0.443   0.908   9.288
 1051SOL    HW2 5161   0.376   0.821   9.184
 1052SOL     OW 5162   1.498   0.258   7.558
 1052SOL    HW1 5163   1.427   0.201   7.594
 1052SOL    HW2 5164   1.533   0.304   7.636
 1053SOL     OW 5165   1.303   0.835   7.471
 1053SOL    HW1 5166   1.350   0.749   7.477
 1053SOL    HW2 5167   1.325   0.863   7.380
 1054SOL     OW 5168   1.072   1.358   8.292
 1054SOL    HW1 5169   1.078   1.282   8.230
 1054SOL    HW2 5170   1.141   1.419   8.259
 1055SOL     OW 5171   0.280   0.832   8.391
 1055SOL    HW1 5172   0.369   0.862   8.369
 1055SOL    HW2 5173   0.300   0.772   8.466
 1056SOL     OW 5174   0.325   0.543   8.442
 1056SOL    HW1 5175   0.292   0.452   8.435
 1056SOL    HW2 5176   0.398   0.542   8.376
 1057SOL     OW 5177   1.162   0.372   9.143
 1057SOL    HW1 5178   1.115   0.427   9.209
 1057SOL    HW2 5179   1.249   0.418   9.139
 1058SOL     OW 5180   1.170   0.226   8.919
 1058SOL    HW1 5181   1.166   0.290   8.993
 1058SOL    HW2 5182   1.189   0.283   8.844
 1059SOL     OW 5183  11.083   1.335   7.637
 1059SOL    HW1 5184  10.996   1.338   7.594
 1059SOL    HW2 5185  11.080   1.249   7.683
 1060SOL     OW 5186   0.140   1.792   8.406
 1060SOL    HW1 5187   0.100   1.732   8.340
 1060SOL    HW2 5188   0.225   1.815   8.362
 1061SOL     OW 5189   0.485   1.580   8.362
 1061SOL    HW1 5190   0.559   1.643   8.374
 1061SOL    HW2 5191   0.527   1.508   8.311
 1062SOL     OW 5192   0.973   0.768   8.658
 1062SOL    HW1 5193   1.025   0.753   8.739
 1062SOL    HW2 5194   0.884   0.786   8.694
 1063SOL     OW 5195   0.007   0.595   8.527
 1063SOL    HW1 5196   0.091   0.570   8.486
 1063SOL    HW2 5197   0.023   0.569   8.618
 1064SOL     OW 5198   0.217   0.523   9.190
 1064SOL    HW1 5199   0.268   0.476   9.122
 1064SOL    HW2 5200   0.177   0.596   9.138
 1065SOL     OW 5201   1.397   0.919   9.113
 1065SOL    HW1 5202   1.422   1.013   9.111
 1065SOL    HW2 5203   1.373   0.903   9.020
 1066SOL     OW 5204   0.809   0.587   7.825
 1066SOL    HW1 5205   0.811   0.503   7.776
 1066SOL    HW2 5206   0.732   0.632   7.787
 1067SOL     OW 5207   1.643   0.602   8.643
 1067SOL    HW1 5208   1.634   0.526   8.704
 1067SOL    HW2 5209   1.732   0.586   8.607
 1068SOL     OW 5210   0.265   1.543   9.171
 1068SOL    HW1 5211   0.233   1.616   9.225
 1068SOL    HW2 5212   0.250   1.465   9.228
 1069SOL     OW 5213   0.704   0.469   8.708
 1069SOL    HW1 5214   0.644   0.397   8.682
 1069SOL    HW2 5215   0.698   0.528   8.631
 1070SOL     OW 5216   0.906   1.692   8.919
 1070SOL    HW1 5217   0.900   1.653   8.831
 1070SOL    HW2 5218   0.911   1.788   8.901
 1071SOL     OW 5219   0.471   0.492   7.641
 1071SOL    HW1 5220   0.530   0.569   7.651
 1071SOL    HW2 5221   0.385   0.538   7.632
 1072SOL     OW 5222   0.172   1.129   8.934
 1072SOL    HW1 5223   0.173   1.069   9.011
 1072SOL    HW2 5224   0.177   1.067   8.858
 1073SOL     OW 5225   1.316   1.045   8.677
 1073SOL    HW1 5226   1.330   0.983   8.603
 1073SOL    HW2 5227   1.251   1.106   8.638
 1074SOL     OW 5228   1.313   0.847   7.743
 1074SOL    HW1 5229   1.228   0.830   7.786
 1074SOL    HW2 5230   1.289   0.851   7.648
 1075SOL     OW 5231   1.757   1.745   8.584
 1075SOL    HW1 5232   1.834   1.763   8.527
 1075SOL    HW2 5233   1.749   1.648   8.574
 1076SOL     OW 5234   1.245   1.725   8.559
 1076SOL    HW1 5235   1.335   1.742   8.527
 1076SOL    HW2 5236   1.248   1.629   8.578
 1077SOL     OW 5237   0.087   1.305   8.454
 1077SOL    HW1 5238   0.085   1.309   8.552
 1077SOL    HW2 5239   0.026   1.232   8.436
 1078SOL     OW 5240   0.680   1.643   9.186
 1078SOL    HW1 5241   0.633   1.724   9.166
 1078SOL    HW2 5242   0.762   1.653   9.134
 1079SOL     OW 5243   1.690   0.114   7.947
 1079SOL    HW1 5244   1.768   0.127   7.890
 1079SOL    HW2 5245   1.723   0.054   8.015
 1080SOL     OW 5246   1.356   1.581   7.935
 1080SOL    HW1 5247   1.409   1.597   7.855
 1080SOL    HW2 5248   1.316   1.668   7.953
 1081SOL     OW 5249   0.167   1.782   9.294
 1081SOL    HW1 5250   0.116   1.717   9.347
 1081SOL    HW2 5251   0.208   1.836   9.363
 1082SOL     OW 5252   1.259   0.925   8.122
 1082SOL    HW1 5253   1.337   0.868   8.137
 1082SOL    HW2 5254   1.298   0.997   8.069
 1083SOL     OW 5255   0.808   1.266   8.877
 1083SOL    HW1 5256   0.772   1.311   8.957
 1083SOL    HW2 5257   0.737   1.282   8.814
 1084SOL     OW 5258   0.680   1.609   7.605
 1084SOL    HW1 5259   0.684   1.626   7.509
 1084SOL    HW2 5260   0.618   1.532   7.605
 1085SOL     OW 5261   1.616   1.719   8.840
 1085SOL    HW1 5262   1.664   1.737   8.758
 1085SOL    HW2 5263   1.599   1.808   8.875
 1086SOL     OW 5264   1.875   0.136   8.376
 1086SOL    HW1 5265   1.887   0.050   8.334
 1086SOL    HW2 5266   1.788   0.165   8.345
 1087SOL     OW 5267   0.268   0.304   8.153
 1087SOL    HW1 5268   0.181   0.341   8.136
 1087SOL    HW2 5269   0.274   0.307   8.250
 1088SOL     OW 5270   1.171   1.630   7.468
 1088SOL    HW1 5271   1.183   1.536   7.488
 1088SOL    HW2 5272   1.115   1.629   7.388
 1089SOL     OW 5273   0.821   0.999   8.816
 1089SOL    HW1 5274   0.813   1.010   8.720
 1089SOL    HW2 5275   0.820   1.091   8.849
 1090SOL     OW 5276   0.927   0.915   7.734
 1090SOL    HW1 5277   0.998   0.939   7.672
 1090SOL    HW2 5278   0.961   0.835   7.776
 1091SOL     OW 5279   1.536   1.665   7.489
 1091SOL    HW1 5280   1.441   1.651   7.475
 1091SOL    HW2 5281   1.571   1.654   7.398
 1092SOL     OW 5282   0.393   1.283   8.917
 1092SOL    HW1 5283   0.360   1.365   8.877
 1092SOL    HW2 5284   0.316   1.223   8.909
 1093SOL     OW 5285   1.601   1.307   8.712
 1093SOL    HW1 5286   1.645   1.280   8.793
 1093SOL    HW2 5287   1.539   1.375   8.746
 1094SOL     OW 5288   1.052   1.118   8.161
 1094SOL    HW1 5289   0.978   1.068   8.200
 1094SOL    HW2 5290   1.113   1.046   8.138
 1095SOL     OW 5291   1.047   0.234   8.417
 1095SOL    HW1 5292   1.033   0.179   8.338
 1095SOL    HW2 5293   1.025   0.170   8.487
 1096SOL     OW 5294   0.601   1.459   7.942
 1096SOL    HW1 5295   0.659   1.432   7.868
 1096SOL    HW2 5296   0.533   1.512   7.899
 1097SOL     OW 5297   1.717   0.388   8.820
 1097SOL    HW1 5298   1.788   0.454   8.812
 1097SOL    HW2 5299   1.756   0.312   8.773
 1098SOL     OW 5300   0.244   1.351   7.710
 1098SOL    HW1 5301   0.148   1.367   7.696
 1098SOL    HW2 5302   0.251   1.368   7.807
 1099SOL     OW 5303   0.132   1.007   9.180
 1099SOL    HW1 5304   0.071   0.942   9.218
 1099SOL    HW2 5305   0.219   0.970   9.210
 1100SOL     OW 5306   0.678   0.226   8.933
 1100SOL    HW1 5307   0.761   0.181   8.909
 1100SOL    HW2 5308   0.695   0.251   9.025
 1101SOL     OW 5309   0.084   0.343   7.497
 1101SOL    HW1 5310  11.092   0.337   7.472
 1101SOL    HW2 5311   0.111   0.424   7.451
 1102SOL     OW 5312   1.447   0.852   8.841
 1102SOL    HW1 5313   1.411   0.917   8.779
 1102SOL    HW2 5314   1.542   0.866   8.833
 1103SOL     OW 5315   0.081   0.144   7.748
 1103SOL    HW1 5316   0.075   0.215   7.682
 1103SOL    HW2 5317   0.173   0.112   7.737
 1104SOL     OW 5318   1.185   1.363   7.562
 1104SOL    HW1 5319   1.090   1.342   7.564
 1104SOL    HW2 5320   1.209   1.355   7.656
 1105SOL     OW 5321   0.655   0.820   8.961
 1105SOL    HW1 5322   0.685   0.898   8.912
 1105SOL    HW2 5323   0.698   0.750   8.911
 1106SOL     OW 5324   1.515   1.745   8.402
 1106SOL    HW1 5325   1.543   1.805   8.333
 1106SOL    HW2 5326   1.593   1.740   8.459
 1107SOL     OW 5327   0.713   0.567   9.159
 1107SOL    HW1 5328   0.776   0.622   9.209
 1107SOL    HW2 5329   0.711   0.482   9.205
 1108SOL     OW 5330   1.462   1.185   9.071
 1108SOL    HW1 5331   1.454   1.191   9.169
 1108SOL    HW2 5332   1.556   1.207   9.058
 1109SOL     OW 5333   0.391   1.730   9.004
 1109SOL    HW1 5334   0.305   1.777   8.993
 1109SOL    HW2 5335   0.360   1.646   9.043
 1110SOL     OW 5336   1.696   0.895   8.678
 1110SOL    HW1 5337   1.665   0.810   8.643
 1110SOL    HW2 5338   1.658   0.959   8.615
 1111SOL     OW 5339   1.241   0.307   7.896
 1111SOL    HW1 5340   1.296   0.227   7.907
 1111SOL    HW2 5341   1.261   0.358   7.977
 1112SOL     OW 5342   0.611   0.744   8.103
 1112SOL    HW1 5343   0.634   0.838   8.096
 1112SOL    HW2 5344   0.538   0.735   8.039
 1113SOL     OW 5345   1.772   0.381   9.089
 1113SOL    HW1 5346   1.748   0.384   8.995
 1113SOL    HW2 5347   1.704   0.321   9.124
 1114SOL     OW 5348   1.735   0.934   8.944
 1114SOL    HW1 5349   1.738   1.030   8.952
 1114SOL    HW2 5350   1.742   0.921   8.848
 1115SOL     OW 5351   0.861   1.372   7.480
 1115SOL    HW1 5352   0.836   1.384   7.573
 1115SOL    HW2 5353   0.881   1.461   7.447
 1116SOL     OW 5354   0.651   1.807   8.353
 1116SOL    HW1 5355   0.649   1.904   8.338
 1116SOL    HW2 5356   0.744   1.789   8.370
 1117SOL     OW 5357   0.876   0.956   8.291
 1117SOL    HW1 5358   0.911   0.875   8.331
 1117SOL    HW2 5359   0.852   1.008   8.369
 1118SOL     OW 5360   1.105   0.994   7.546
 1118SOL    HW1 5361   1.074   1.048   7.471
 1118SOL    HW2 5362   1.169   0.933   7.504
 1119SOL     OW 5363   1.864   1.551   8.272
 1119SOL    HW1 5364   1.767   1.544   8.274
 1119SOL    HW2 5365   1.889   1.489   8.341
 1120SOL     OW 5366   0.221   1.299   9.295
 1120SOL    HW1 5367   0.183   1.213   9.272
 1120SOL    HW2 5368   0.215   1.299   9.392
 1121SOL     OW 5369   0.078   1.237   8.113
 1121SOL    HW1 5370   0.074   1.168   8.180
 1121SOL    HW2 5371   0.156   1.212   8.063
 1122SOL     OW 5372   0.663   1.400   9.055
 1122SOL    HW1 5373   0.583   1.351   9.082
 1122SOL    HW2 5374   0.654   1.483   9.104
 1123SOL     OW 5375   1.834   0.194   8.661
 1123SOL    HW1 5376   1.812   0.102   8.682
 1123SOL    HW2 5377   1.836   0.189   8.565
 1124SOL     OW 5378   0.431   0.398   7.956
 1124SOL    HW1 5379   0.456   0.325   7.899
 1124SOL    HW2 5380   0.381   0.356   8.029
 1125SOL     OW 5381   1.721   1.491   8.537
 1125SOL    HW1 5382   1.636   1.473   8.493
 1125SOL    HW2 5383   1.716   1.425   8.609
 1126SOL     OW 5384   0.307   0.490   8.712
 1126SOL    HW1 5385   0.358   0.552   8.766
 1126SOL    HW2 5386   0.324   0.526   8.623
 1127SOL     OW 5387   0.834   1.588   8.124
 1127SOL    HW1 5388   0.817   1.650   8.052
 1127SOL    HW2 5389   0.751   1.538   8.130
 1128SOL     OW 5390   1.425   0.252   8.537
 1128SOL    HW1 5391   1.441   0.166   8.578
 1128SOL    HW2 5392   1.379   0.302   8.608
 1129SOL     OW 5393   0.995   0.006   8.607
 1129SOL    HW1 5394   0.953  11.020   8.599
 1129SOL    HW2 5395   1.089  11.084   8.591
 1130SOL     OW 5396   0.792   1.339   7.758
 1130SOL    HW1 5397   0.762   1.246   7.765
 1130SOL    HW2 5398   0.861   1.343   7.826
 1131SOL     OW 5399   0.591   1.560   8.725
 1131SOL    HW1 5400   0.600   1.648   8.765
 1131SOL    HW2 5401   0.683   1.545   8.698
 1132SOL     OW 5402   1.319   0.062   7.629
 1132SOL    HW1 5403   1.327  11.089   7.568
 1132SOL    HW2 5404   1.228   0.050   7.664
 1133SOL     OW 5405   1.272   0.461   8.107
 1133SOL    HW1 5406   1.222   0.545   8.103
 1133SOL    HW2 5407   1.263   0.435   8.201
 1134SOL     OW 5408   1.625   0.220   8.313
 1134SOL    HW1 5409   1.552   0.227   8.376
 1134SOL    HW2 5410   1.617   0.306   8.267
 1135SOL     OW 5411   0.040   1.078   7.757
 1135SOL    HW1 5412   0.131   1.080   7.726
 1135SOL    HW2 5413   0.029   0.983   7.778
 1136SOL     OW 5414   0.889   1.647   7.776
 1136SOL    HW1 5415   0.815   1.626   7.715
 1136SOL    HW2 5416   0.854   1.721   7.828
 1137SOL     OW 5417   0.251   0.642   9.437
 1137SOL    HW1 5418   0.164   0.621   9.475
 1137SOL    HW2 5419   0.246   0.606   9.346
 1138SOL     OW 5420   0.206   0.274  10.297
 1138SOL    HW1 5421   0.240   0.249  10.385
 1138SOL    HW2 5422   0.147   0.200  10.278
 1139SOL     OW 5423   0.005   0.387   9.957
 1139SOL    HW1 5424  11.042   0.394  10.029
 1139SOL    HW2 5425  11.078   0.306   9.911
 1140SOL     OW 5426   0.579   1.301  10.461
 1140SOL    HW1 5427   0.487   1.291  10.433
 1140SOL    HW2 5428   0.577   1.388  10.503
 1141SOL     OW 5429   1.540   1.526  10.018
 1141SOL    HW1 5430   1.505   1.496  10.105
 1141SOL    HW2 5431   1.462   1.529   9.960
 1142SOL     OW 5432   1.123   0.697  10.004
 1142SOL    HW1 5433   1.167   0.785  10.004
 1142SOL    HW2 5434   1.079   0.699  10.090
 1143SOL     OW 5435   1.780   0.601   9.536
 1143SOL    HW1 5436   1.754   0.588   9.442
 1143SOL    HW2 5437   1.745   0.521   9.577
 1144SOL     OW 5438   0.762   1.151  10.348
 1144SOL    HW1 5439   0.693   1.202  10.396
 1144SOL    HW2 5440   0.800   1.223  10.295
 1145SOL     OW 5441   0.892   0.793  11.093
 1145SOL    HW1 5442   0.838   0.847   0.051
 1145SOL    HW2 5443   0.940   0.860  11.043
 1146SOL     OW 5444   0.686   1.020   9.968
 1146SOL    HW1 5445   0.744   1.010  10.046
 1146SOL    HW2 5446   0.611   1.071  10.004
 1147SOL     OW 5447   0.324   1.426  10.387
 1147SOL    HW1 5448   0.247   1.396  10.337
 1147SOL    HW2 5449   0.372   1.480  10.321
 1148SOL     OW 5450   1.474   1.496  10.662
 1148SOL    HW1 5451   1.526   1.578  10.675
 1148SOL    HW2 5452   1.400   1.510  10.724
 1149SOL     OW 5453   0.475   0.421  10.801
 1149SOL    HW1 5454   0.544   0.354  10.787
 1149SOL    HW2 5455   0.393   0.367  10.808
 1150SOL     OW 5456   1.610   0.451  10.046
 1150SOL    HW1 5457   1.562   0.488   9.971
 1150SOL    HW2 5458   1.582   0.511  10.118
 1151SOL     OW 5459   0.234   1.665   9.791
 1151SOL    HW1 5460   0.230   1.748   9.840
 1151SOL    HW2 5461   0.272   1.694   9.707
 1152SOL     OW 5462   0.229   1.402   9.825
 1152SOL    HW1 5463   0.232   1.499   9.815
 1152SOL    HW2 5464   0.157   1.392   9.890
 1153SOL     OW 5465   0.266   1.121  10.217
 1153SOL    HW1 5466   0.244   1.034  10.254
 1153SOL    HW2 5467   0.194   1.177  10.251
 1154SOL     OW 5468   0.617   1.795  10.731
 1154SOL    HW1 5469   0.539   1.783  10.789
 1154SOL    HW2 5470   0.643   1.887  10.751
 1155SOL     OW 5471   0.580   0.992   9.425
 1155SOL    HW1 5472   0.625   1.045   9.357
 1155SOL    HW2 5473   0.625   1.022   9.507
 1156SOL     OW 5474   1.609   0.135  10.791
 1156SOL    HW1 5475   1.631   0.217  10.745
 1156SOL    HW2 5476   1.546   0.163  10.857
 1157SOL     OW 5477   0.125   0.638   9.864
 1157SOL    HW1 5478   0.089   0.548   9.876
 1157SOL    HW2 5479   0.113   0.681   9.951
 1158SOL     OW 5480   1.845   1.729   9.656
 1158SOL    HW1 5481   1.914   1.715   9.725
 1158SOL    HW2 5482   1.858   1.822   9.634
 1159SOL     OW 5483   0.055   1.592   9.445
 1159SOL    HW1 5484   0.025   1.501   9.457
 1159SOL    HW2 5485  -0.001   1.641   9.506
 1160SOL     OW 5486   1.694   0.914   9.908
 1160SOL    HW1 5487   1.768   0.877   9.857
 1160SOL    HW2 5488   1.663   0.984   9.848
 1161SOL     OW 5489   1.639   1.127   9.747
 1161SOL    HW1 5490   1.730   1.127   9.715
 1161SOL    HW2 5491   1.644   1.192   9.820
 1162SOL     OW 5492   0.146   0.733  10.913
 1162SOL    HW1 5493   0.243   0.738  10.923
 1162SOL    HW2 5494   0.118   0.821  10.938
 1163SOL     OW 5495   0.617   1.403  10.067
 1163SOL    HW1 5496   0.578   1.315  10.081
 1163SOL    HW2 5497   0.598   1.414   9.972
 1164SOL     OW 5498   1.295   1.232  10.733
 1164SOL    HW1 5499   1.321   1.166  10.666
 1164SOL    HW2 5500   1.348   1.207  10.810
 1165SOL     OW 5501   0.819   0.012   9.837
 1165SOL    HW1 5502   0.842   0.102   9.808
 1165SOL    HW2 5503   0.722   0.010   9.822
 1166SOL     OW 5504   0.175   0.991  10.560
 1166SOL    HW1 5505   0.257   0.942  10.546
 1166SOL    HW2 5506   0.107   0.924  10.545
 1167SOL     OW 5507   1.544   0.965   9.488
 1167SOL    HW1 5508   1.469   0.909   9.514
 1167SOL    HW2 5509   1.575   0.997   9.574
 1168SOL     OW 5510   1.193   1.773  10.917
 1168SOL    HW1 5511   1.180   1.855  10.866
 1168SOL    HW2 5512   1.211   1.707  10.848
 1169SOL     OW 5513   0.326   0.262   0.044
 1169SOL    HW1 5514   0.384   0.340   0.047
 1169SOL    HW2 5515   0.239   0.299   0.067
 1170SOL     OW 5516   1.471   1.417  10.267
 1170SOL    HW1 5517   1.404   1.433  10.337
 1170SOL    HW2 5518   1.447   1.326  10.239
 1171SOL     OW 5519   1.654   1.740   9.907
 1171SOL    HW1 5520   1.638   1.698   9.821
 1171SOL    HW2 5521   1.628   1.670   9.968
 1172SOL     OW 5522   0.595   0.728   9.574
 1172SOL    HW1 5523   0.603   0.809   9.522
 1172SOL    HW2 5524   0.525   0.749   9.637
 1173SOL     OW 5525   1.290   0.366  10.238
 1173SOL    HW1 5526   1.202   0.322  10.240
 1173SOL    HW2 5527   1.339   0.313  10.304
 1174SOL     OW 5528   1.570   1.645   9.618
 1174SOL    HW1 5529   1.665   1.666   9.619
 1174SOL    HW2 5530   1.556   1.636   9.522
 1175SOL     OW 5531   0.834   0.591  10.756
 1175SOL    HW1 5532   0.796   0.582  10.846
 1175SOL    HW2 5533   0.771   0.539  10.702
 1176SOL     OW 5534   1.010   0.934  10.859
 1176SOL    HW1 5535   1.041   0.847  10.828
 1176SOL    HW2 5536   0.926   0.943  10.811
 1177SOL     OW 5537   0.989   0.391  10.535
 1177SOL    HW1 5538   0.912   0.431  10.579
 1177SOL    HW2 5539   0.948   0.341  10.464
 1178SOL     OW 5540   1.042   0.704   9.731
 1178SOL    HW1 5541   1.064   0.705   9.826
 1178SOL    HW2 5542   0.957   0.656   9.729
 1179SOL     OW 5543   0.104   0.802  10.081
 1179SOL    HW1 5544   0.183   0.795  10.137
 1179SOL    HW2 5545   0.066   0.886  10.113
 1180SOL     OW 5546   0.109   1.834  10.897
 1180SOL    HW1 5547   0.106   1.796  10.986
 1180SOL    HW2 5548   0.038   1.789  10.850
 1181SOL     OW 5549   0.875   0.343   9.523
 1181SOL    HW1 5550   0.918   0.403   9.460
 1181SOL    HW2 5551   0.873   0.261   9.472
 1182SOL     OW 5552   1.362   1.145   9.878
 1182SOL    HW1 5553   1.437   1.137   9.817
 1182SOL    HW2 5554   1.308   1.211   9.831
 1183SOL     OW 5555   0.568   0.203  10.179
 1183SOL    HW1 5556   0.582   0.217  10.274
 1183SOL    HW2 5557   0.562   0.292  10.143
 1184SOL     OW 5558   0.986   1.447   9.791
 1184SOL    HW1 5559   0.948   1.514   9.731
 1184SOL    HW2 5560   0.980   1.491   9.877
 1185SOL     OW 5561   0.374   1.807  10.142
 1185SOL    HW1 5562   0.395   1.714  10.163
 1185SOL    HW2 5563   0.457   1.851  10.167
 1186SOL     OW 5564   1.808   1.036  10.166
 1186SOL    HW1 5565   1.752   1.017  10.089
 1186SOL    HW2 5566   1.745   1.034  10.239
 1187SOL     OW 5567   1.239   1.544  10.789
 1187SOL    HW1 5568   1.213   1.483  10.857
 1187SOL    HW2 5569   1.173   1.528  10.721
 1188SOL     OW 5570   0.321   0.954   9.560
 1188SOL    HW1 5571   0.393   0.977   9.498
 1188SOL    HW2 5572   0.291   0.868   9.524
 1189SOL     OW 5573   1.489   0.761  10.020
 1189SOL    HW1 5574   1.498   0.725  10.110
 1189SOL    HW2 5575   1.568   0.816  10.010
 1190SOL     OW 5576   0.461   1.272  11.054
 1190SOL    HW1 5577   0.431   1.280  10.961
 1190SOL    HW2 5578   0.436   1.182  11.077
 1191SOL     OW 5579   1.110   1.774   9.549
 1191SOL    HW1 5580   1.042   1.721   9.593
 1191SOL    HW2 5581   1.123   1.727   9.465
 1192SOL     OW 5582   0.244   0.294  10.801
 1192SOL    HW1 5583   0.164   0.348  10.811
 1192SOL    HW2 5584   0.228   0.224  10.867
 1193SOL     OW 5585   1.621   1.369   9.414
 1193SOL    HW1 5586   1.580   1.453   9.389
 1193SOL    HW2 5587   1.561   1.303   9.375
 1194SOL     OW 5588   0.454   1.740   9.624
 1194SOL    HW1 5589   0.506   1.790   9.690
 1194SOL    HW2 5590   0.522   1.704   9.565
 1195SOL     OW 5591   1.397   0.085   9.752
 1195SOL    HW1 5592   1.396   0.070   9.656
 1195SOL    HW2 5593   1.490   0.103   9.772
 1196SOL     OW 5594   0.251   1.798  10.541
 1196SOL    HW1 5595   0.313   1.733  10.577
 1196SOL    HW2 5596   0.228   1.761  10.455
 1197SOL     OW 5597   0.945   1.705  10.195
 1197SOL    HW1 5598   1.026   1.656  10.213
 1197SOL    HW2 5599   0.908   1.652  10.121
 1198SOL     OW 5600   0.383   0.661   9.791
 1198SOL    HW1 5601   0.418   0.570   9.800
 1198SOL    HW2 5602   0.290   0.647   9.814
 1199SOL     OW 5603   0.627   0.102   9.403
 1199SOL    HW1 5604   0.649   0.012   9.435
 1199SOL    HW2 5605   0.577   0.082   9.321
 1200SOL     OW 5606   0.747   0.280  11.033
 1200SOL    HW1 5607   0.810   0.222  11.079
 1200SOL    HW2 5608   0.684   0.302   0.001
 1201SOL     OW 5609   0.878   1.542  10.508
 1201SOL    HW1 5610   0.867   1.497  10.421
 1201SOL    HW2 5611   0.940   1.483  10.554
 1202SOL     OW 5612   1.330   0.594  10.746
 1202SOL    HW1 5613   1.381   0.557  10.818
 1202SOL    HW2 5614   1.378   0.678  10.731
 1203SOL     OW 5615   0.838   1.401  10.271
 1203SOL    HW1 5616   0.923   1.391  10.223
 1203SOL    HW2 5617   0.774   1.409  10.197
 1204SOL     OW 5618   0.954   0.518  10.220
 1204SOL    HW1 5619   0.917   0.494  10.132
 1204SOL    HW2 5620   0.988   0.431  10.249
 1205SOL     OW 5621   0.553   0.024   9.812
 1205SOL    HW1 5622   0.467   0.028   9.857
 1205SOL    HW2 5623   0.551   0.105   9.759
 1206SOL     OW 5624   1.446   1.177   9.334
 1206SOL    HW1 5625   1.470   1.101   9.391
 1206SOL    HW2 5626   1.361   1.205   9.370
 1207SOL     OW 5627   0.309   0.034   9.517
 1207SOL    HW1 5628   0.341   0.107   9.463
 1207SOL    HW2 5629   0.390  11.096   9.550
 1208SOL     OW 5630   0.924   0.259   9.781
 1208SOL    HW1 5631   0.898   0.300   9.696
 1208SOL    HW2 5632   1.021   0.263   9.774
 1209SOL     OW 5633   1.086   0.704  10.752
 1209SOL    HW1 5634   1.013   0.641  10.767
 1209SOL    HW2 5635   1.166   0.649  10.756
 1210SOL     OW 5636   1.225   1.577  10.115
 1210SOL    HW1 5637   1.226   1.634  10.036
 1210SOL    HW2 5638   1.298   1.612  10.167
 1211SOL     OW 5639   0.464   1.168  10.036
 1211SOL    HW1 5640   0.391   1.151  10.100
 1211SOL    HW2 5641   0.422   1.141   9.951
 1212SOL     OW 5642   1.248   1.809   9.919
 1212SOL    HW1 5643   1.296   1.880   9.873
 1212SOL    HW2 5644   1.197   1.858   9.986
 1213SOL     OW 5645   1.063   0.546   9.330
 1213SOL    HW1 5646   1.012   0.623   9.299
 1213SOL    HW2 5647   1.130   0.585   9.388
 1214SOL     OW 5648   0.079   0.536  10.729
 1214SOL    HW1 5649   0.164   0.547  10.685
 1214SOL    HW2 5650   0.079   0.613  10.789
 1215SOL     OW 5651   0.565   0.230  10.467
 1215SOL    HW1 5652   0.601   0.172  10.535
 1215SOL    HW2 5653   0.471   0.233  10.491
 1216SOL     OW 5654   0.873   0.441   9.976
 1216SOL    HW1 5655   0.833   0.503   9.912
 1216SOL    HW2 5656   0.892   0.364   9.919
 1217SOL     OW 5657   0.996   0.013  10.062
 1217SOL    HW1 5658   0.949   0.041   9.982
 1217SOL    HW2 5659   0.948  11.034  10.086
 1218SOL     OW 5660   1.424   1.168  10.193
 1218SOL    HW1 5661   1.356   1.104  10.213
 1218SOL    HW2 5662   1.428   1.162  10.096
 1219SOL     OW 5663   1.500   0.606  10.261
 1219SOL    HW1 5664   1.436   0.533  10.267
 1219SOL    HW2 5665   1.548   0.601  10.346
 1220SOL     OW 5666   1.848   0.803   9.695
 1220SOL    HW1 5667   1.899   0.753   9.762
 1220SOL    HW2 5668   1.834   0.735   9.625
 1221SOL     OW 5669   0.494   1.403   9.463
 1221SOL    HW1 5670   0.409   1.387   9.509
 1221SOL    HW2 5671   0.480   1.357   9.379
 1222SOL     OW 5672   1.675   1.285   9.962
 1222SOL    HW1 5673   1.772   1.295   9.973
 1222SOL    HW2 5674   1.640   1.373   9.985
 1223SOL     OW 5675   1.413   0.602   9.369
 1223SOL    HW1 5676   1.364   0.575   9.450
 1223SOL    HW2 5677   1.496   0.554   9.380
 1224SOL     OW 5678   0.522   0.249   9.607
 1224SOL    HW1 5679   0.569   0.205   9.534
 1224SOL    HW2 5680   0.501   0.336   9.568
 1225SOL     OW 5681   1.741   1.220  10.872
 1225SOL    HW1 5682   1.837   1.210  10.882
 1225SOL    HW2 5683   1.728   1.312  10.902
 1226SOL     OW 5684   1.030   1.373  10.675
 1226SOL    HW1 5685   0.956   1.323  10.713
 1226SOL    HW2 5686   1.105   1.314  10.692
 1227SOL     OW 5687   1.117   1.235  10.415
 1227SOL    HW1 5688   1.033   1.238  10.463
 1227SOL    HW2 5689   1.095   1.282  10.332
 1228SOL     OW 5690   1.620   1.085  10.384
 1228SOL    HW1 5691   1.632   1.152  10.453
 1228SOL    HW2 5692   1.549   1.126  10.331
 1229SOL     OW 5693   0.904   0.119  10.688
 1229SOL    HW1 5694   0.929   0.086  10.600
 1229SOL    HW2 5695   0.990   0.154  10.721
 1230SOL     OW 5696   0.711   1.062   9.671
 1230SOL    HW1 5697   0.702   1.047   9.766
 1230SOL    HW2 5698   0.790   1.008   9.649
 1231SOL     OW 5699   0.403   0.825  10.581
 1231SOL    HW1 5700   0.481   0.815  10.641
 1231SOL    HW2 5701   0.365   0.735  10.588
 1232SOL     OW 5702   1.268   0.372  10.589
 1232SOL    HW1 5703   1.282   0.461  10.628
 1232SOL    HW2 5704   1.183   0.383  10.544
 1233SOL     OW 5705   0.050   1.585  10.695
 1233SOL    HW1 5706   0.020   1.642  10.623
 1233SOL    HW2 5707   0.146   1.578  10.679
 1234SOL     OW 5708   0.363   1.105   9.793
 1234SOL    HW1 5709   0.363   1.181   9.733
 1234SOL    HW2 5710   0.345   1.030   9.734
 1235SOL     OW 5711   0.523   0.549  10.142
 1235SOL    HW1 5712   0.558   0.610  10.073
 1235SOL    HW2 5713   0.588   0.560  10.213
 1236SOL     OW 5714   1.226   1.332   9.707
 1236SOL    HW1 5715   1.271   1.411   9.741
 1236SOL    HW2 5716   1.135   1.350   9.737
 1237SOL     OW 5717   1.289   1.458  10.464
 1237SOL    HW1 5718   1.348   1.457  10.541
 1237SOL    HW2 5719   1.233   1.380  10.479
 1238SOL     OW 5720   1.583   0.630   9.778
 1238SOL    HW1 5721   1.535   0.688   9.840
 1238SOL    HW2 5722   1.617   0.694   9.714
 1239SOL     OW 5723   0.335   1.500  10.635
 1239SOL    HW1 5724   0.326   1.465  10.544
 1239SOL    HW2 5725   0.428   1.527  10.636
 1240SOL     OW 5726   0.425   0.713  10.917
 1240SOL    HW1 5727   0.498   0.752  10.865
 1240SOL    HW2 5728   0.436   0.619  10.896
 1241SOL     OW 5729   1.622   0.749  10.997
 1241SOL    HW1 5730   1.552   0.813  11.016
 1241SOL    HW2 5731   1.681   0.801  10.941
 1242SOL     OW 5732   0.574   0.877  10.339
 1242SOL    HW1 5733   0.615   0.964  10.326
 1242SOL    HW2 5734   0.537   0.883  10.428
 1243SOL     OW 5735   1.353   0.857  10.342
 1243SOL    HW1 5736   1.277   0.826  10.291
 1243SOL    HW2 5737   1.413   0.782  10.338
 1244SOL     OW 5738   1.246   0.526   9.576
 1244SOL    HW1 5739   1.256   0.444   9.628
 1244SOL    HW2 5740   1.176   0.570   9.626
 1245SOL     OW 5741   0.288   0.195  10.550
 1245SOL    HW1 5742   0.258   0.247  10.627
 1245SOL    HW2 5743   0.293   0.106  10.588
 1246SOL     OW 5744   0.067   1.314  10.597
 1246SOL    HW1 5745   0.122   1.261  10.657
 1246SOL    HW2 5746   0.062   1.399  10.643
 1247SOL     OW 5747   0.721   0.610  10.329
 1247SOL    HW1 5748   0.808   0.593  10.288
 1247SOL    HW2 5749   0.703   0.704  10.310
 1248SOL     OW 5750   0.286   0.058   9.907
 1248SOL    HW1 5751   0.273   0.154   9.922
 1248SOL    HW2 5752   0.301   0.028   9.998
 1249SOL     OW 5753   1.587   0.391   9.648
 1249SOL    HW1 5754   1.619   0.328   9.713
 1249SOL    HW2 5755   1.581   0.473   9.701
 1250SOL     OW 5756   1.065   0.757  10.273
 1250SOL    HW1 5757   1.036   0.781  10.363
 1250SOL    HW2 5758   1.032   0.665  10.265
 1251SOL     OW 5759   0.988   1.546  10.965
 1251SOL    HW1 5760   0.980   1.621  10.902
 1251SOL    HW2 5761   0.948   1.475  10.914
 1252SOL     OW 5762   1.854   1.494  10.900
 1252SOL    HW1 5763   1.869   1.527  10.810
 1252SOL    HW2 5764   1.935   1.519  10.946
 1253SOL     OW 5765   0.389   0.937  11.060
 1253SOL    HW1 5766   0.379   0.932   0.056
 1253SOL    HW2 5767   0.419   0.847  11.036
 1254SOL     OW 5768   1.505   0.259   9.428
 1254SOL    HW1 5769   1.429   0.207   9.461
 1254SOL    HW2 5770   1.532   0.311   9.506
 1255SOL     OW 5771   1.287   0.834   9.336
 1255SOL    HW1 5772   1.338   0.750   9.345
 1255SOL    HW2 5773   1.319   0.866   9.250
 1256SOL     OW 5774   1.066   1.362  10.160
 1256SOL    HW1 5775   1.073   1.289  10.094
 1256SOL    HW2 5776   1.134   1.426  10.131
 1257SOL     OW 5777   0.292   0.822  10.294
 1257SOL    HW1 5778   0.385   0.850  10.293
 1257SOL    HW2 5779   0.300   0.728  10.318
 1258SOL     OW 5780   0.318   0.532  10.312
 1258SOL    HW1 5781   0.277   0.446  10.291
 1258SOL    HW2 5782   0.388   0.536  10.243
 1259SOL     OW 5783   1.142   0.222  10.777
 1259SOL    HW1 5784   1.163   0.275  10.854
 1259SOL    HW2 5785   1.179   0.275  10.704
 1260SOL     OW 5786  11.085   1.332   9.497
 1260SOL    HW1 5787  10.992   1.339   9.471
 1260SOL    HW2 5788  11.087   1.245   9.541
 1261SOL     OW 5789   0.140   1.800  10.271
 1261SOL    HW1 5790   0.099   1.741  10.207
 1261SOL    HW2 5791   0.224   1.821  10.224
 1262SOL     OW 5792   0.491   1.575  10.233
 1262SOL    HW1 5793   0.563   1.639  10.243
 1262SOL    HW2 5794   0.531   1.508  10.174
 1263SOL     OW 5795   0.950   0.801  10.538
 1263SOL    HW1 5796   1.020   0.768  10.598
 1263SOL    HW2 5797   0.870   0.769  10.582
 1264SOL     OW 5798   0.001   0.503  10.422
 1264SOL    HW1 5799   0.086   0.518  10.379
 1264SOL    HW2 5800   0.026   0.508  10.516
 1265SOL     OW 5801   0.801   0.583   9.697
 1265SOL    HW1 5802   0.808   0.508   9.637
 1265SOL    HW2 5803   0.725   0.631   9.661
 1266SOL     OW 5804   1.643   0.614  10.489
 1266SOL    HW1 5805   1.625   0.543  10.552
 1266SOL    HW2 5806   1.732   0.587  10.457
 1267SOL     OW 5807   0.266   1.567  11.050
 1267SOL    HW1 5808   0.194   1.586   0.011
 1267SOL    HW2 5809   0.308   1.490  11.092
 1268SOL     OW 5810   0.697   0.472  10.556
 1268SOL    HW1 5811   0.652   0.391  10.527
 1268SOL    HW2 5812   0.700   0.526  10.474
 1269SOL     OW 5813   0.926   1.691  10.739
 1269SOL    HW1 5814   0.890   1.656  10.656
 1269SOL    HW2 5815   0.914   1.788  10.730
 1270SOL     OW 5816   0.469   0.494   9.492
 1270SOL    HW1 5817   0.528   0.569   9.507
 1270SOL    HW2 5818   0.383   0.541   9.487
 1271SOL     OW 5819   0.192   1.142  10.784
 1271SOL    HW1 5820   0.179   1.085  10.862
 1271SOL    HW2 5821   0.193   1.079  10.709
 1272SOL     OW 5822   1.315   1.051  10.533
 1272SOL    HW1 5823   1.335   0.986  10.463
 1272SOL    HW2 5824   1.245   1.104  10.492
 1273SOL     OW 5825   1.314   0.850   9.610
 1273SOL    HW1 5826   1.232   0.820   9.650
 1273SOL    HW2 5827   1.291   0.856   9.515
 1274SOL     OW 5828   1.757   1.755  10.443
 1274SOL    HW1 5829   1.826   1.777  10.377
 1274SOL    HW2 5830   1.751   1.658  10.432
 1275SOL     OW 5831   1.243   1.723  10.445
 1275SOL    HW1 5832   1.333   1.741  10.413
 1275SOL    HW2 5833   1.245   1.626  10.456
 1276SOL     OW 5834   0.072   1.290  10.329
 1276SOL    HW1 5835   0.080   1.301  10.426
 1276SOL    HW2 5836   0.001   1.225  10.322
 1277SOL     OW 5837   1.688   0.111   9.806
 1277SOL    HW1 5838   1.768   0.129   9.754
 1277SOL    HW2 5839   1.720   0.056   9.879
 1278SOL     OW 5840   1.362   1.576   9.797
 1278SOL    HW1 5841   1.423   1.591   9.722
 1278SOL    HW2 5842   1.324   1.665   9.811
 1279SOL     OW 5843   1.269   0.923  10.006
 1279SOL    HW1 5844   1.347   0.864  10.009
 1279SOL    HW2 5845   1.299   0.993   9.946
 1280SOL     OW 5846   0.800   1.246  10.751
 1280SOL    HW1 5847   0.773   1.288  10.836
 1280SOL    HW2 5848   0.730   1.277  10.692
 1281SOL     OW 5849   0.662   1.620   9.466
 1281SOL    HW1 5850   0.674   1.627   9.369
 1281SOL    HW2 5851   0.611   1.536   9.472
 1282SOL     OW 5852   1.619   1.715  10.683
 1282SOL    HW1 5853   1.670   1.735  10.603
 1282SOL    HW2 5854   1.605   1.802  10.723
 1283SOL     OW 5855   1.858   0.116  10.260
 1283SOL    HW1 5856   1.878   0.044  10.199
 1283SOL    HW2 5857   1.777   0.156  10.223
 1284SOL     OW 5858   0.265   0.302  10.017
 1284SOL    HW1 5859   0.180   0.345  10.000
 1284SOL    HW2 5860   0.265   0.294  10.114
 1285SOL     OW 5861   1.174   1.620   9.334
 1285SOL    HW1 5862   1.188   1.525   9.351
 1285SOL    HW2 5863   1.118   1.621   9.255
 1286SOL     OW 5864   0.790   0.976  10.704
 1286SOL    HW1 5865   0.829   0.978  10.616
 1286SOL    HW2 5866   0.803   1.068  10.735
 1287SOL     OW 5867   0.922   0.919   9.596
 1287SOL    HW1 5868   0.992   0.944   9.532
 1287SOL    HW2 5869   0.959   0.841   9.639
 1288SOL     OW 5870   1.540   1.620   9.344
 1288SOL    HW1 5871   1.445   1.633   9.337
 1288SOL    HW2 5872   1.567   1.622   9.249
 1289SOL     OW 5873   0.402   1.298  10.805
 1289SOL    HW1 5874   0.374   1.372  10.747
 1289SOL    HW2 5875   0.327   1.236  10.794
 1290SOL     OW 5876   1.611   1.293  10.574
 1290SOL    HW1 5877   1.659   1.271  10.654
 1290SOL    HW2 5878   1.551   1.364  10.607
 1291SOL     OW 5879   1.032   1.132  10.020
 1291SOL    HW1 5880   0.962   1.077  10.057
 1291SOL    HW2 5881   1.097   1.066   9.992
 1292SOL     OW 5882   1.044   0.248  10.277
 1292SOL    HW1 5883   1.017   0.200  10.197
 1292SOL    HW2 5884   1.028   0.180  10.345
 1293SOL     OW 5885   0.590   1.447   9.799
 1293SOL    HW1 5886   0.651   1.418   9.729
 1293SOL    HW2 5887   0.522   1.495   9.751
 1294SOL     OW 5888   1.709   0.386  10.692
 1294SOL    HW1 5889   1.775   0.458  10.694
 1294SOL    HW2 5890   1.744   0.331  10.618
 1295SOL     OW 5891   0.241   1.348   9.569
 1295SOL    HW1 5892   0.147   1.368   9.554
 1295SOL    HW2 5893   0.247   1.359   9.667
 1296SOL     OW 5894   0.133   1.028  11.020
 1296SOL    HW1 5895   0.074   1.006  11.093
 1296SOL    HW2 5896   0.221   1.001  11.054
 1297SOL     OW 5897   0.673   0.227  10.768
 1297SOL    HW1 5898   0.756   0.188  10.734
 1297SOL    HW2 5899   0.695   0.244  10.861
 1298SOL     OW 5900   0.089   0.345   9.359
 1298SOL    HW1 5901  11.098   0.359   9.337
 1298SOL    HW2 5902   0.130   0.413   9.303
 1299SOL     OW 5903   1.451   0.849  10.732
 1299SOL    HW1 5904   1.392   0.910  10.686
 1299SOL    HW2 5905   1.537   0.873  10.695
 1300SOL     OW 5906   0.069   0.148   9.609
 1300SOL    HW1 5907   0.067   0.222   9.546
 1300SOL    HW2 5908   0.161   0.119   9.604
 1301SOL     OW 5909   1.212   1.348   9.426
 1301SOL    HW1 5910   1.126   1.303   9.426
 1301SOL    HW2 5911   1.233   1.349   9.521
 1302SOL     OW 5912   0.617   0.775  10.733
 1302SOL    HW1 5913   0.666   0.859  10.730
 1302SOL    HW2 5914   0.689   0.713  10.753
 1303SOL     OW 5915   1.518   1.746  10.296
 1303SOL    HW1 5916   1.548   1.796  10.219
 1303SOL    HW2 5917   1.591   1.758  10.359
 1304SOL     OW 5918   0.721   0.593  11.001
 1304SOL    HW1 5919   0.766   0.657  11.059
 1304SOL    HW2 5920   0.752   0.508  11.035
 1305SOL     OW 5921   0.382   1.737  10.864
 1305SOL    HW1 5922   0.301   1.788  10.850
 1305SOL    HW2 5923   0.352   1.673  10.931
 1306SOL     OW 5924   1.675   0.894  10.570
 1306SOL    HW1 5925   1.659   0.805  10.535
 1306SOL    HW2 5926   1.652   0.953  10.495
 1307SOL     OW 5927   1.235   0.314   9.759
 1307SOL    HW1 5928   1.281   0.229   9.768
 1307SOL    HW2 5929   1.259   0.361   9.842
 1308SOL     OW 5930   0.607   0.754   9.961
 1308SOL    HW1 5931   0.630   0.849   9.961
 1308SOL    HW2 5932   0.537   0.749   9.894
 1309SOL     OW 5933   1.774   0.338  10.947
 1309SOL    HW1 5934   1.741   0.360  10.858
 1309SOL    HW2 5935   1.693   0.318  10.995
 1310SOL     OW 5936   1.766   0.933  10.827
 1310SOL    HW1 5937   1.751   1.028  10.837
 1310SOL    HW2 5938   1.752   0.919  10.732
 1311SOL     OW 5939   0.859   1.368   9.346
 1311SOL    HW1 5940   0.831   1.382   9.438
 1311SOL    HW2 5941   0.884   1.456   9.315
 1312SOL     OW 5942   0.654   1.798  10.219
 1312SOL    HW1 5943   0.647   1.895  10.223
 1312SOL    HW2 5944   0.750   1.784  10.218
 1313SOL     OW 5945   0.867   0.960  10.170
 1313SOL    HW1 5946   0.928   0.889  10.196
 1313SOL    HW2 5947   0.852   1.008  10.253
 1314SOL     OW 5948   1.095   0.999   9.411
 1314SOL    HW1 5949   1.060   1.050   9.335
 1314SOL    HW2 5950   1.153   0.934   9.367
 1315SOL     OW 5951   1.835   1.547  10.160
 1315SOL    HW1 5952   1.761   1.536  10.100
 1315SOL    HW2 5953   1.804   1.506  10.243
 1316SOL     OW 5954   0.087   1.232   9.983
 1316SOL    HW1 5955   0.103   1.169  10.054
 1316SOL    HW2 5956   0.165   1.221   9.927
 1317SOL     OW 5957   0.672   1.401  10.930
 1317SOL    HW1 5958   0.598   1.352  10.970
 1317SOL    HW2 5959   0.636   1.490  10.923
 1318SOL     OW 5960   1.793   0.192  10.526
 1318SOL    HW1 5961   1.778   0.096  10.537
 1318SOL    HW2 5962   1.822   0.195  10.433
 1319SOL     OW 5963   0.435   0.400   9.824
 1319SOL    HW1 5964   0.450   0.330   9.759
 1319SOL    HW2 5965   0.386   0.358   9.896
 1320SOL     OW 5966   1.719   1.490  10.408
 1320SOL    HW1 5967   1.632   1.470  10.369
 1320SOL    HW2 5968   1.718   1.429  10.484
 1321SOL     OW 5969   0.332   0.566  10.601
 1321SOL    HW1 5970   0.393   0.518  10.660
 1321SOL    HW2 5971   0.357   0.535  10.513
 1322SOL     OW 5972   0.830   1.583   9.986
 1322SOL    HW1 5973   0.806   1.638   9.910
 1322SOL    HW2 5974   0.751   1.528   9.998
 1323SOL     OW 5975   1.429   0.235  10.426
 1323SOL    HW1 5976   1.469   0.164  10.478
 1323SOL    HW2 5977   1.376   0.282  10.493
 1324SOL     OW 5978   0.982   0.015  10.456
 1324SOL    HW1 5979   0.938  11.030  10.460
 1324SOL    HW2 5980   1.076  11.088  10.458
 1325SOL     OW 5981   0.777   1.332   9.620
 1325SOL    HW1 5982   0.748   1.239   9.625
 1325SOL    HW2 5983   0.852   1.334   9.681
 1326SOL     OW 5984   0.601   1.562  10.588
 1326SOL    HW1 5985   0.608   1.648  10.635
 1326SOL    HW2 5986   0.688   1.557  10.546
 1327SOL     OW 5987   1.318   0.070   9.486
 1327SOL    HW1 5988   1.330  11.098   9.424
 1327SOL    HW2 5989   1.227   0.055   9.518
 1328SOL     OW 5990   1.273   0.459   9.981
 1328SOL    HW1 5991   1.222   0.542   9.979
 1328SOL    HW2 5992   1.266   0.432  10.075
 1329SOL     OW 5993   1.625   0.212  10.179
 1329SOL    HW1 5994   1.549   0.219  10.238
 1329SOL    HW2 5995   1.621   0.298  10.133
 1330SOL     OW 5996   0.042   1.075   9.614
 1330SOL    HW1 5997   0.135   1.077   9.588
 1330SOL    HW2 5998   0.029   0.979   9.632
 1331SOL     OW 5999   0.885   1.646   9.632
 1331SOL    HW1 6000   0.809   1.631   9.573
 1331SOL    HW2 6001   0.858   1.726   9.682
 1332SOL     OW 6002   0.241   2.516   0.125
 1332SOL    HW1 6003   0.156   2.490   0.167
 1332SOL    HW2 6004   0.218   2.520   0.032
 1333SOL     OW 6005   0.228   2.153   1.007
 1333SOL    HW1 6006   0.259   2.126   1.096
 1333SOL    HW2 6007   0.165   2.083   0.986
 1334SOL     OW 6008  11.095   2.235   0.651
 1334SOL    HW1 6009  11.024   2.268   0.706
 1334SOL    HW2 6010  11.059   2.152   0.613
 1335SOL     OW 6011   0.570   3.162   1.186
 1335SOL    HW1 6012   0.482   3.158   1.148
 1335SOL    HW2 6013   0.572   3.253   1.224
 1336SOL     OW 6014   1.540   3.385   0.719
 1336SOL    HW1 6015   1.503   3.354   0.804
 1336SOL    HW2 6016   1.465   3.381   0.658
 1337SOL     OW 6017   1.133   2.557   0.705
 1337SOL    HW1 6018   1.171   2.644   0.681
 1337SOL    HW2 6019   1.097   2.575   0.792
 1338SOL     OW 6020   1.767   2.468   0.215
 1338SOL    HW1 6021   1.712   2.500   0.141
 1338SOL    HW2 6022   1.709   2.405   0.259
 1339SOL     OW 6023   0.747   3.025   1.025
 1339SOL    HW1 6024   0.683   3.067   1.086
 1339SOL    HW2 6025   0.786   3.105   0.985
 1340SOL     OW 6026   0.896   2.611   1.803
 1340SOL    HW1 6027   0.862   2.676   1.866
 1340SOL    HW2 6028   0.917   2.666   1.724
 1341SOL     OW 6029   0.670   2.861   0.641
 1341SOL    HW1 6030   0.742   2.848   0.705
 1341SOL    HW2 6031   0.607   2.917   0.690
 1342SOL     OW 6032   0.700   3.020   1.803
 1342SOL    HW1 6033   0.747   3.103   1.826
 1342SOL    HW2 6034   0.612   3.052   1.776
 1343SOL     OW 6035   0.324   3.283   1.066
 1343SOL    HW1 6036   0.248   3.243   1.021
 1343SOL    HW2 6037   0.365   3.338   0.996
 1344SOL     OW 6038   1.468   3.369   1.362
 1344SOL    HW1 6039   1.526   3.447   1.378
 1344SOL    HW2 6040   1.404   3.378   1.434
 1345SOL     OW 6041   0.436   2.249   1.534
 1345SOL    HW1 6042   0.517   2.197   1.523
 1345SOL    HW2 6043   0.365   2.190   1.505
 1346SOL     OW 6044   1.621   2.314   0.735
 1346SOL    HW1 6045   1.536   2.344   0.699
 1346SOL    HW2 6046   1.633   2.375   0.808
 1347SOL     OW 6047   0.267   3.531   0.503
 1347SOL    HW1 6048   0.254   3.617   0.548
 1347SOL    HW2 6049   0.296   3.560   0.416
 1348SOL     OW 6050   1.120   3.210   1.657
 1348SOL    HW1 6051   1.169   3.209   1.740
 1348SOL    HW2 6052   1.077   3.122   1.661
 1349SOL     OW 6053   0.237   3.263   0.522
 1349SOL    HW1 6054   0.242   3.360   0.525
 1349SOL    HW2 6055   0.169   3.244   0.588
 1350SOL     OW 6056   0.259   2.965   0.907
 1350SOL    HW1 6057   0.247   2.882   0.956
 1350SOL    HW2 6058   0.196   3.025   0.952
 1351SOL     OW 6059   0.614   3.667   1.413
 1351SOL    HW1 6060   0.535   3.641   1.463
 1351SOL    HW2 6061   0.631   3.758   1.446
 1352SOL     OW 6062   0.584   2.854   0.161
 1352SOL    HW1 6063   0.655   2.887   0.103
 1352SOL    HW2 6064   0.622   2.874   0.249
 1353SOL     OW 6065   1.606   1.963   1.495
 1353SOL    HW1 6066   1.603   2.041   1.438
 1353SOL    HW2 6067   1.623   2.002   1.582
 1354SOL     OW 6068   0.136   2.513   0.546
 1354SOL    HW1 6069   0.128   2.417   0.554
 1354SOL    HW2 6070   0.112   2.544   0.635
 1355SOL     OW 6071   1.849   3.598   0.360
 1355SOL    HW1 6072   1.910   3.580   0.434
 1355SOL    HW2 6073   1.866   3.692   0.343
 1356SOL     OW 6074   0.073   3.464   0.111
 1356SOL    HW1 6075   0.043   3.378   0.145
 1356SOL    HW2 6076   0.092   3.513   0.193
 1357SOL     OW 6077   1.704   2.773   0.621
 1357SOL    HW1 6078   1.791   2.741   0.593
 1357SOL    HW2 6079   1.683   2.837   0.551
 1358SOL     OW 6080   1.641   2.985   0.438
 1358SOL    HW1 6081   1.711   3.019   0.381
 1358SOL    HW2 6082   1.647   3.047   0.514
 1359SOL     OW 6083   0.119   2.591   1.584
 1359SOL    HW1 6084   0.200   2.640   1.608
 1359SOL    HW2 6085   0.058   2.663   1.559
 1360SOL     OW 6086   0.608   3.257   0.760
 1360SOL    HW1 6087   0.561   3.172   0.768
 1360SOL    HW2 6088   0.597   3.274   0.665
 1361SOL     OW 6089   1.277   3.086   1.421
 1361SOL    HW1 6090   1.313   3.022   1.358
 1361SOL    HW2 6091   1.334   3.074   1.499
 1362SOL     OW 6092   0.821   1.854   0.507
 1362SOL    HW1 6093   0.853   1.945   0.492
 1362SOL    HW2 6094   0.724   1.867   0.502
 1363SOL     OW 6095   0.175   2.848   1.250
 1363SOL    HW1 6096   0.261   2.804   1.239
 1363SOL    HW2 6097   0.114   2.781   1.218
 1364SOL     OW 6098   1.551   2.840   0.207
 1364SOL    HW1 6099   1.472   2.791   0.232
 1364SOL    HW2 6100   1.578   2.879   0.291
 1365SOL     OW 6101   1.181   3.658   1.619
 1365SOL    HW1 6102   1.177   3.718   1.544
 1365SOL    HW2 6103   1.203   3.573   1.576
 1366SOL     OW 6104   0.326   2.092   1.812
 1366SOL    HW1 6105   0.387   2.162   1.833
 1366SOL    HW2 6106   0.242   2.124   1.851
 1367SOL     OW 6107   1.468   3.290   0.964
 1367SOL    HW1 6108   1.403   3.309   1.035
 1367SOL    HW2 6109   1.441   3.200   0.936
 1368SOL     OW 6110   1.648   3.608   0.595
 1368SOL    HW1 6111   1.648   3.563   0.509
 1368SOL    HW2 6112   1.625   3.535   0.654
 1369SOL     OW 6113   0.587   2.581   0.258
 1369SOL    HW1 6114   0.596   2.668   0.218
 1369SOL    HW2 6115   0.524   2.595   0.332
 1370SOL     OW 6116   1.272   2.200   0.923
 1370SOL    HW1 6117   1.185   2.165   0.950
 1370SOL    HW2 6118   1.332   2.158   0.987
 1371SOL     OW 6119   1.574   3.519   0.320
 1371SOL    HW1 6120   1.669   3.537   0.319
 1371SOL    HW2 6121   1.558   3.496   0.227
 1372SOL     OW 6122   0.793   2.484   1.471
 1372SOL    HW1 6123   0.771   2.448   1.559
 1372SOL    HW2 6124   0.751   2.419   1.412
 1373SOL     OW 6125   1.399   2.341   1.679
 1373SOL    HW1 6126   1.413   2.397   1.757
 1373SOL    HW2 6127   1.464   2.269   1.694
 1374SOL     OW 6128   0.966   2.747   1.579
 1374SOL    HW1 6129   1.003   2.666   1.539
 1374SOL    HW2 6130   0.912   2.782   1.505
 1375SOL     OW 6131   0.983   2.259   1.236
 1375SOL    HW1 6132   0.899   2.279   1.280
 1375SOL    HW2 6133   0.956   2.204   1.162
 1376SOL     OW 6134   1.037   2.539   0.400
 1376SOL    HW1 6135   1.055   2.556   0.494
 1376SOL    HW2 6136   0.952   2.491   0.404
 1377SOL     OW 6137   0.093   2.667   0.772
 1377SOL    HW1 6138   0.174   2.654   0.825
 1377SOL    HW2 6139   0.051   2.738   0.823
 1378SOL     OW 6140   0.134   3.699   1.567
 1378SOL    HW1 6141   0.134   3.676   1.662
 1378SOL    HW2 6142   0.040   3.721   1.552
 1379SOL     OW 6143   0.861   2.226   0.216
 1379SOL    HW1 6144   0.909   2.273   0.145
 1379SOL    HW2 6145   0.876   2.132   0.193
 1380SOL     OW 6146   1.709   2.433   1.834
 1380SOL    HW1 6147   1.679   2.516   1.792
 1380SOL    HW2 6148   1.743   2.384   1.758
 1381SOL     OW 6149   1.361   3.029   0.576
 1381SOL    HW1 6150   1.441   3.015   0.523
 1381SOL    HW2 6151   1.310   3.088   0.517
 1382SOL     OW 6152   0.591   2.069   0.897
 1382SOL    HW1 6153   0.588   2.078   0.994
 1382SOL    HW2 6154   0.568   2.158   0.865
 1383SOL     OW 6155   0.982   3.279   0.475
 1383SOL    HW1 6156   0.949   3.354   0.422
 1383SOL    HW2 6157   0.989   3.317   0.563
 1384SOL     OW 6158   0.364   3.673   0.829
 1384SOL    HW1 6159   0.386   3.579   0.843
 1384SOL    HW2 6160   0.441   3.716   0.869
 1385SOL     OW 6161   1.817   2.914   0.887
 1385SOL    HW1 6162   1.760   2.903   0.810
 1385SOL    HW2 6163   1.756   2.898   0.961
 1386SOL     OW 6164   1.219   3.422   1.491
 1386SOL    HW1 6165   1.197   3.353   1.556
 1386SOL    HW2 6166   1.175   3.386   1.413
 1387SOL     OW 6167   0.327   2.825   0.268
 1387SOL    HW1 6168   0.407   2.838   0.215
 1387SOL    HW2 6169   0.307   2.731   0.252
 1388SOL     OW 6170   1.481   2.615   0.706
 1388SOL    HW1 6171   1.477   2.583   0.798
 1388SOL    HW2 6172   1.563   2.666   0.704
 1389SOL     OW 6173   0.466   3.130   1.729
 1389SOL    HW1 6174   0.436   3.129   1.636
 1389SOL    HW2 6175   0.383   3.153   1.774
 1390SOL     OW 6176   1.100   3.624   0.216
 1390SOL    HW1 6177   1.054   3.567   0.280
 1390SOL    HW2 6178   1.125   3.559   0.147
 1391SOL     OW 6179   0.185   2.135   1.488
 1391SOL    HW1 6180   0.108   2.192   1.504
 1391SOL    HW2 6181   0.176   2.070   1.559
 1392SOL     OW 6182   1.615   3.204   0.097
 1392SOL    HW1 6183   1.569   3.287   0.074
 1392SOL    HW2 6184   1.562   3.137   0.051
 1393SOL     OW 6185   0.459   3.599   0.304
 1393SOL    HW1 6186   0.489   3.640   0.387
 1393SOL    HW2 6187   0.541   3.594   0.254
 1394SOL     OW 6188   1.386   1.972   0.444
 1394SOL    HW1 6189   1.386   1.927   0.358
 1394SOL    HW2 6190   1.480   1.991   0.458
 1395SOL     OW 6191   0.267   3.655   1.222
 1395SOL    HW1 6192   0.304   3.574   1.260
 1395SOL    HW2 6193   0.229   3.625   1.138
 1396SOL     OW 6194   0.950   3.555   0.884
 1396SOL    HW1 6195   1.038   3.514   0.893
 1396SOL    HW2 6196   0.912   3.502   0.811
 1397SOL     OW 6197   0.403   2.566   0.459
 1397SOL    HW1 6198   0.420   2.469   0.462
 1397SOL    HW2 6199   0.313   2.568   0.496
 1398SOL     OW 6200   1.548   2.115   1.726
 1398SOL    HW1 6201   1.548   2.120   1.825
 1398SOL    HW2 6202   1.492   2.037   1.714
 1399SOL     OW 6203   0.607   1.954   0.105
 1399SOL    HW1 6204   0.699   1.942   0.133
 1399SOL    HW2 6205   0.611   1.944   0.010
 1400SOL     OW 6206   0.765   2.133   1.746
 1400SOL    HW1 6207   0.847   2.080   1.751
 1400SOL    HW2 6208   0.715   2.103   1.823
 1401SOL     OW 6209   0.877   3.403   1.191
 1401SOL    HW1 6210   0.868   3.376   1.098
 1401SOL    HW2 6211   0.934   3.333   1.228
 1402SOL     OW 6212   1.333   2.461   1.435
 1402SOL    HW1 6213   1.371   2.430   1.520
 1402SOL    HW2 6214   1.386   2.540   1.413
 1403SOL     OW 6215   0.827   3.267   0.945
 1403SOL    HW1 6216   0.914   3.257   0.901
 1403SOL    HW2 6217   0.766   3.274   0.870
 1404SOL     OW 6218   0.944   2.377   0.890
 1404SOL    HW1 6219   0.921   2.354   0.797
 1404SOL    HW2 6220   0.966   2.290   0.925
 1405SOL     OW 6221   0.561   1.911   0.490
 1405SOL    HW1 6222   0.479   1.915   0.542
 1405SOL    HW2 6223   0.553   1.992   0.435
 1406SOL     OW 6224   1.432   3.021   0.011
 1406SOL    HW1 6225   1.469   2.958   0.076
 1406SOL    HW2 6226   1.360   3.063   0.060
 1407SOL     OW 6227   0.275   1.903   0.191
 1407SOL    HW1 6228   0.302   1.963   0.119
 1407SOL    HW2 6229   0.356   1.851   0.207
 1408SOL     OW 6230   0.940   2.109   0.465
 1408SOL    HW1 6231   0.916   2.151   0.381
 1408SOL    HW2 6232   1.036   2.128   0.471
 1409SOL     OW 6233   1.081   2.542   1.460
 1409SOL    HW1 6234   1.032   2.459   1.470
 1409SOL    HW2 6235   1.175   2.514   1.456
 1410SOL     OW 6236   1.234   3.445   0.790
 1410SOL    HW1 6237   1.237   3.513   0.720
 1410SOL    HW2 6238   1.308   3.470   0.846
 1411SOL     OW 6239   0.464   3.013   0.742
 1411SOL    HW1 6240   0.390   2.996   0.804
 1411SOL    HW2 6241   0.423   2.985   0.657
 1412SOL     OW 6242   1.256   3.667   0.633
 1412SOL    HW1 6243   1.304   3.733   0.580
 1412SOL    HW2 6244   1.203   3.724   0.692
 1413SOL     OW 6245   0.986   2.366   0.025
 1413SOL    HW1 6246   0.990   2.462   0.017
 1413SOL    HW2 6247   1.079   2.343   0.031
 1414SOL     OW 6248   0.062   2.428   1.382
 1414SOL    HW1 6249   0.153   2.422   1.348
 1414SOL    HW2 6250   0.074   2.491   1.456
 1415SOL     OW 6251   0.586   2.081   1.166
 1415SOL    HW1 6252   0.628   2.008   1.213
 1415SOL    HW2 6253   0.493   2.074   1.196
 1416SOL     OW 6254   0.881   2.298   0.645
 1416SOL    HW1 6255   0.829   2.355   0.586
 1416SOL    HW2 6256   0.896   2.220   0.589
 1417SOL     OW 6257   0.999   1.926   0.773
 1417SOL    HW1 6258   0.948   1.909   0.693
 1417SOL    HW2 6259   0.979   1.850   0.829
 1418SOL     OW 6260   1.425   3.042   0.871
 1418SOL    HW1 6261   1.350   2.983   0.885
 1418SOL    HW2 6262   1.432   3.039   0.773
 1419SOL     OW 6263   1.466   2.457   0.976
 1419SOL    HW1 6264   1.418   2.374   0.983
 1419SOL    HW2 6265   1.526   2.455   1.053
 1420SOL     OW 6266   1.872   2.687   0.367
 1420SOL    HW1 6267   1.916   2.630   0.433
 1420SOL    HW2 6268   1.835   2.621   0.307
 1421SOL     OW 6269   0.488   3.327   0.132
 1421SOL    HW1 6270   0.416   3.302   0.193
 1421SOL    HW2 6271   0.485   3.253   0.069
 1422SOL     OW 6272   1.670   3.150   0.652
 1422SOL    HW1 6273   1.766   3.158   0.666
 1422SOL    HW2 6274   1.635   3.236   0.683
 1423SOL     OW 6275   1.392   2.455   0.082
 1423SOL    HW1 6276   1.352   2.419   0.164
 1423SOL    HW2 6277   1.437   2.378   0.047
 1424SOL     OW 6278   0.529   2.110   0.312
 1424SOL    HW1 6279   0.543   2.049   0.237
 1424SOL    HW2 6280   0.504   2.191   0.265
 1425SOL     OW 6281   1.732   3.091   1.577
 1425SOL    HW1 6282   1.822   3.055   1.580
 1425SOL    HW2 6283   1.751   3.185   1.592
 1426SOL     OW 6284   1.051   3.214   1.331
 1426SOL    HW1 6285   0.974   3.184   1.382
 1426SOL    HW2 6286   1.124   3.168   1.377
 1427SOL     OW 6287   1.609   3.466   1.631
 1427SOL    HW1 6288   1.612   3.505   1.541
 1427SOL    HW2 6289   1.694   3.419   1.634
 1428SOL     OW 6290   1.117   3.085   1.095
 1428SOL    HW1 6291   1.065   3.120   1.169
 1428SOL    HW2 6292   1.079   3.131   1.018
 1429SOL     OW 6293   1.595   2.949   1.075
 1429SOL    HW1 6294   1.606   3.016   1.146
 1429SOL    HW2 6295   1.543   2.998   1.009
 1430SOL     OW 6296   0.923   1.969   1.400
 1430SOL    HW1 6297   0.953   1.947   1.310
 1430SOL    HW2 6298   1.003   2.014   1.436
 1431SOL     OW 6299   0.991   2.976   1.727
 1431SOL    HW1 6300   0.899   2.992   1.754
 1431SOL    HW2 6301   0.984   2.897   1.670
 1432SOL     OW 6302   0.717   2.917   0.390
 1432SOL    HW1 6303   0.694   2.894   0.482
 1432SOL    HW2 6304   0.800   2.866   0.376
 1433SOL     OW 6305   0.389   2.680   1.255
 1433SOL    HW1 6306   0.462   2.686   1.320
 1433SOL    HW2 6307   0.370   2.585   1.255
 1434SOL     OW 6308   1.289   2.245   1.270
 1434SOL    HW1 6309   1.309   2.324   1.323
 1434SOL    HW2 6310   1.198   2.263   1.240
 1435SOL     OW 6311   0.050   3.438   1.338
 1435SOL    HW1 6312   0.017   3.528   1.345
 1435SOL    HW2 6313   0.147   3.450   1.337
 1436SOL     OW 6314   0.356   2.959   0.504
 1436SOL    HW1 6315   0.366   3.042   0.458
 1436SOL    HW2 6316   0.344   2.895   0.431
 1437SOL     OW 6317   0.566   2.400   0.865
 1437SOL    HW1 6318   0.587   2.467   0.796
 1437SOL    HW2 6319   0.621   2.428   0.939
 1438SOL     OW 6320   1.226   3.203   0.398
 1438SOL    HW1 6321   1.268   3.285   0.431
 1438SOL    HW2 6322   1.133   3.217   0.422
 1439SOL     OW 6323   1.296   3.332   1.162
 1439SOL    HW1 6324   1.359   3.332   1.236
 1439SOL    HW2 6325   1.236   3.260   1.187
 1440SOL     OW 6326   1.582   2.489   0.474
 1440SOL    HW1 6327   1.535   2.531   0.549
 1440SOL    HW2 6328   1.599   2.564   0.416
 1441SOL     OW 6329   0.328   3.389   1.309
 1441SOL    HW1 6330   0.320   3.338   1.226
 1441SOL    HW2 6331   0.424   3.408   1.308
 1442SOL     OW 6332   0.426   2.596   1.611
 1442SOL    HW1 6333   0.484   2.636   1.544
 1442SOL    HW2 6334   0.454   2.504   1.608
 1443SOL     OW 6335   1.627   2.637   1.681
 1443SOL    HW1 6336   1.536   2.673   1.681
 1443SOL    HW2 6337   1.667   2.686   1.606
 1444SOL     OW 6338   0.989   1.975   1.754
 1444SOL    HW1 6339   1.058   2.042   1.745
 1444SOL    HW2 6340   1.033   1.898   1.713
 1445SOL     OW 6341   0.491   1.884   1.758
 1445SOL    HW1 6342   0.452   1.824   1.691
 1445SOL    HW2 6343   0.424   1.955   1.762
 1446SOL     OW 6344   0.613   2.745   1.047
 1446SOL    HW1 6345   0.630   2.840   1.046
 1446SOL    HW2 6346   0.543   2.735   1.113
 1447SOL     OW 6347   1.346   2.717   1.023
 1447SOL    HW1 6348   1.260   2.679   1.002
 1447SOL    HW2 6349   1.402   2.638   1.017
 1448SOL     OW 6350   1.236   2.359   0.278
 1448SOL    HW1 6351   1.237   2.289   0.346
 1448SOL    HW2 6352   1.171   2.420   0.316
 1449SOL     OW 6353   0.312   2.054   1.240
 1449SOL    HW1 6354   0.247   2.082   1.308
 1449SOL    HW2 6355   0.296   1.957   1.240
 1450SOL     OW 6356   0.050   3.171   1.281
 1450SOL    HW1 6357   0.113   3.125   1.339
 1450SOL    HW2 6358   0.052   3.263   1.314
 1451SOL     OW 6359   0.736   2.503   1.062
 1451SOL    HW1 6360   0.807   2.488   0.998
 1451SOL    HW2 6361   0.705   2.594   1.044
 1452SOL     OW 6362   1.760   2.817   1.844
 1452SOL    HW1 6363   1.714   2.744   1.800
 1452SOL    HW2 6364   1.709   2.822   1.927
 1453SOL     OW 6365   0.312   1.916   0.606
 1453SOL    HW1 6366   0.290   2.006   0.636
 1453SOL    HW2 6367   0.327   1.872   0.693
 1454SOL     OW 6368   1.586   2.245   0.369
 1454SOL    HW1 6369   1.629   2.186   0.433
 1454SOL    HW2 6370   1.580   2.329   0.418
 1455SOL     OW 6371   1.078   2.609   0.982
 1455SOL    HW1 6372   1.046   2.618   1.074
 1455SOL    HW2 6373   1.043   2.521   0.958
 1456SOL     OW 6374   0.975   3.428   1.706
 1456SOL    HW1 6375   0.962   3.484   1.626
 1456SOL    HW2 6376   1.005   3.344   1.667
 1457SOL     OW 6377   1.851   3.360   1.598
 1457SOL    HW1 6378   1.881   3.382   1.507
 1457SOL    HW2 6379   1.929   3.383   1.651
 1458SOL     OW 6380   0.356   2.745   1.823
 1458SOL    HW1 6381   0.441   2.765   1.864
 1458SOL    HW2 6382   0.381   2.678   1.756
 1459SOL     OW 6383   1.522   2.135   0.111
 1459SOL    HW1 6384   1.453   2.079   0.148
 1459SOL    HW2 6385   1.561   2.173   0.190
 1460SOL     OW 6386   1.291   2.701   0.034
 1460SOL    HW1 6387   1.332   2.613   0.048
 1460SOL    HW2 6388   1.324   2.723  11.047
 1461SOL     OW 6389   1.063   3.223   0.846
 1461SOL    HW1 6390   1.071   3.141   0.793
 1461SOL    HW2 6391   1.135   3.279   0.814
 1462SOL     OW 6392   0.281   2.687   0.973
 1462SOL    HW1 6393   0.369   2.698   0.934
 1462SOL    HW2 6394   0.288   2.599   1.015
 1463SOL     OW 6395   0.338   2.403   1.001
 1463SOL    HW1 6396   0.303   2.312   0.991
 1463SOL    HW2 6397   0.415   2.401   0.940
 1464SOL     OW 6398   1.157   2.225   1.706
 1464SOL    HW1 6399   1.112   2.286   1.768
 1464SOL    HW2 6400   1.248   2.261   1.709
 1465SOL     OW 6401   1.158   2.072   1.474
 1465SOL    HW1 6402   1.166   2.130   1.552
 1465SOL    HW2 6403   1.215   2.115   1.410
 1466SOL     OW 6404  11.086   3.204   0.225
 1466SOL    HW1 6405  10.995   3.200   0.195
 1466SOL    HW2 6406   0.002   3.108   0.244
 1467SOL     OW 6407   0.136   3.651   0.961
 1467SOL    HW1 6408   0.096   3.592   0.895
 1467SOL    HW2 6409   0.219   3.674   0.915
 1468SOL     OW 6410   0.486   3.442   0.911
 1468SOL    HW1 6411   0.558   3.508   0.918
 1468SOL    HW2 6412   0.528   3.371   0.859
 1469SOL     OW 6413   0.965   2.628   1.232
 1469SOL    HW1 6414   1.015   2.599   1.311
 1469SOL    HW2 6415   0.877   2.594   1.252
 1470SOL     OW 6416  11.099   2.458   1.094
 1470SOL    HW1 6417   0.067   2.409   1.048
 1470SOL    HW2 6418   0.013   2.433   1.186
 1471SOL     OW 6419   0.211   2.384   1.739
 1471SOL    HW1 6420   0.261   2.336   1.672
 1471SOL    HW2 6421   0.170   2.454   1.685
 1472SOL     OW 6422   1.382   2.762   1.648
 1472SOL    HW1 6423   1.400   2.858   1.649
 1472SOL    HW2 6424   1.367   2.744   1.554
 1473SOL     OW 6425   0.795   2.422   0.391
 1473SOL    HW1 6426   0.814   2.345   0.333
 1473SOL    HW2 6427   0.728   2.469   0.338
 1474SOL     OW 6428   1.634   2.483   1.200
 1474SOL    HW1 6429   1.614   2.421   1.272
 1474SOL    HW2 6430   1.716   2.446   1.165
 1475SOL     OW 6431   0.268   3.407   1.727
 1475SOL    HW1 6432   0.231   3.482   1.777
 1475SOL    HW2 6433   0.249   3.331   1.786
 1476SOL     OW 6434   0.694   2.332   1.273
 1476SOL    HW1 6435   0.649   2.255   1.236
 1476SOL    HW2 6436   0.700   2.393   1.196
 1477SOL     OW 6437   0.910   3.555   1.477
 1477SOL    HW1 6438   0.895   3.518   1.389
 1477SOL    HW2 6439   0.907   3.651   1.461
 1478SOL     OW 6440   0.455   2.347   0.185
 1478SOL    HW1 6441   0.516   2.423   0.194
 1478SOL    HW2 6442   0.370   2.393   0.179
 1479SOL     OW 6443   0.165   2.990   1.488
 1479SOL    HW1 6444   0.167   2.934   1.568
 1479SOL    HW2 6445   0.168   2.925   1.415
 1480SOL     OW 6446   1.319   2.913   1.214
 1480SOL    HW1 6447   1.335   2.849   1.142
 1480SOL    HW2 6448   1.248   2.968   1.177
 1481SOL     OW 6449   1.320   2.721   0.309
 1481SOL    HW1 6450   1.239   2.684   0.347
 1481SOL    HW2 6451   1.306   2.711   0.214
 1482SOL     OW 6452   1.757   3.615   1.129
 1482SOL    HW1 6453   1.829   3.633   1.066
 1482SOL    HW2 6454   1.747   3.518   1.119
 1483SOL     OW 6455   1.241   3.588   1.108
 1483SOL    HW1 6456   1.331   3.608   1.081
 1483SOL    HW2 6457   1.246   3.492   1.127
 1484SOL     OW 6458   0.094   3.143   1.016
 1484SOL    HW1 6459   0.085   3.164   1.111
 1484SOL    HW2 6460   0.018   3.085   1.001
 1485SOL     OW 6461   0.679   3.504   1.743
 1485SOL    HW1 6462   0.631   3.586   1.724
 1485SOL    HW2 6463   0.759   3.515   1.690
 1486SOL     OW 6464   0.904   1.966   0.162
 1486SOL    HW1 6465   0.942   1.942   0.077
 1486SOL    HW2 6466   0.953   1.903   0.219
 1487SOL     OW 6467   1.687   1.999   0.504
 1487SOL    HW1 6468   1.762   1.989   0.444
 1487SOL    HW2 6469   1.681   1.911   0.545
 1488SOL     OW 6470   1.357   3.431   0.483
 1488SOL    HW1 6471   1.428   3.443   0.418
 1488SOL    HW2 6472   1.327   3.522   0.496
 1489SOL     OW 6473   0.164   3.644   1.839
 1489SOL    HW1 6474   0.114   3.580   1.893
 1489SOL    HW2 6475   0.210   3.694   1.908
 1490SOL     OW 6476   1.256   2.786   0.637
 1490SOL    HW1 6477   1.337   2.736   0.656
 1490SOL    HW2 6478   1.292   2.869   0.602
 1491SOL     OW 6479   0.801   3.122   1.434
 1491SOL    HW1 6480   0.766   3.173   1.511
 1491SOL    HW2 6481   0.730   3.135   1.369
 1492SOL     OW 6482   0.693   3.488   0.174
 1492SOL    HW1 6483   0.700   3.498   0.079
 1492SOL    HW2 6484   0.618   3.423   0.179
 1493SOL     OW 6485   1.622   3.585   1.389
 1493SOL    HW1 6486   1.667   3.600   1.305
 1493SOL    HW2 6487   1.608   3.675   1.424
 1494SOL     OW 6488   1.845   2.025   0.977
 1494SOL    HW1 6489   1.866   1.936   0.944
 1494SOL    HW2 6490   1.760   2.046   0.933
 1495SOL     OW 6491   0.261   2.163   0.705
 1495SOL    HW1 6492   0.170   2.182   0.678
 1495SOL    HW2 6493   0.256   2.173   0.801
 1496SOL     OW 6494   1.211   3.451   0.040
 1496SOL    HW1 6495   1.217   3.355   0.053
 1496SOL    HW2 6496   1.150   3.459  11.066
 1497SOL     OW 6497   0.806   2.860   1.392
 1497SOL    HW1 6498   0.837   2.860   1.301
 1497SOL    HW2 6499   0.814   2.954   1.418
 1498SOL     OW 6500   0.935   2.791   0.299
 1498SOL    HW1 6501   0.985   2.816   0.219
 1498SOL    HW2 6502   0.965   2.700   0.317
 1499SOL     OW 6503   1.493   3.449   0.045
 1499SOL    HW1 6504   1.398   3.468   0.045
 1499SOL    HW2 6505   1.521   3.480  11.059
 1500SOL     OW 6506   0.385   3.138   1.480
 1500SOL    HW1 6507   0.361   3.222   1.436
 1500SOL    HW2 6508   0.304   3.085   1.473
 1501SOL     OW 6509   1.599   3.159   1.269
 1501SOL    HW1 6510   1.641   3.137   1.353
 1501SOL    HW2 6511   1.542   3.234   1.294
 1502SOL     OW 6512   1.044   2.975   0.728
 1502SOL    HW1 6513   0.968   2.919   0.753
 1502SOL    HW2 6514   1.104   2.911   0.687
 1503SOL     OW 6515   1.036   2.090   0.990
 1503SOL    HW1 6516   1.018   2.047   0.904
 1503SOL    HW2 6517   1.036   2.012   1.050
 1504SOL     OW 6518   0.604   3.336   0.493
 1504SOL    HW1 6519   0.656   3.293   0.423
 1504SOL    HW2 6520   0.529   3.374   0.447
 1505SOL     OW 6521   1.707   2.240   1.376
 1505SOL    HW1 6522   1.771   2.314   1.377
 1505SOL    HW2 6523   1.755   2.173   1.323
 1506SOL     OW 6524   0.250   3.235   0.253
 1506SOL    HW1 6525   0.154   3.228   0.236
 1506SOL    HW2 6526   0.250   3.241   0.351
 1507SOL     OW 6527   0.143   2.871   1.743
 1507SOL    HW1 6528   0.075   2.824   1.793
 1507SOL    HW2 6529   0.225   2.827   1.775
 1508SOL     OW 6530   0.684   2.054   1.493
 1508SOL    HW1 6531   0.773   2.031   1.459
 1508SOL    HW2 6532   0.704   2.088   1.582
 1509SOL     OW 6533   0.067   2.207   0.074
 1509SOL    HW1 6534  11.077   2.176   0.059
 1509SOL    HW2 6535   0.081   2.261  11.097
 1510SOL     OW 6536   1.447   2.720   1.377
 1510SOL    HW1 6537   1.412   2.787   1.315
 1510SOL    HW2 6538   1.539   2.750   1.386
 1511SOL     OW 6539   0.066   2.021   0.314
 1511SOL    HW1 6540   0.064   2.097   0.255
 1511SOL    HW2 6541   0.147   1.975   0.284
 1512SOL     OW 6542   1.208   3.173   0.127
 1512SOL    HW1 6543   1.112   3.161   0.125
 1512SOL    HW2 6544   1.225   3.181   0.223
 1513SOL     OW 6545   0.612   2.671   1.411
 1513SOL    HW1 6546   0.666   2.753   1.410
 1513SOL    HW2 6547   0.683   2.606   1.429
 1514SOL     OW 6548   1.511   3.638   0.961
 1514SOL    HW1 6549   1.543   3.683   0.883
 1514SOL    HW2 6550   1.591   3.625   1.014
 1515SOL     OW 6551   0.718   2.412   1.718
 1515SOL    HW1 6552   0.769   2.474   1.773
 1515SOL    HW2 6553   0.741   2.325   1.754
 1516SOL     OW 6554   1.460   3.042   1.624
 1516SOL    HW1 6555   1.454   3.046   1.722
 1516SOL    HW2 6556   1.556   3.058   1.611
 1517SOL     OW 6557   0.388   3.594   1.558
 1517SOL    HW1 6558   0.303   3.641   1.546
 1517SOL    HW2 6559   0.357   3.512   1.602
 1518SOL     OW 6560   1.704   2.746   1.225
 1518SOL    HW1 6561   1.669   2.656   1.210
 1518SOL    HW2 6562   1.653   2.802   1.163
 1519SOL     OW 6563   1.210   2.183   0.482
 1519SOL    HW1 6564   1.275   2.111   0.470
 1519SOL    HW2 6565   1.246   2.233   0.558
 1520SOL     OW 6566   0.597   2.596   0.672
 1520SOL    HW1 6567   0.623   2.689   0.660
 1520SOL    HW2 6568   0.530   2.585   0.602
 1521SOL     OW 6569   1.768   2.241   1.632
 1521SOL    HW1 6570   1.730   2.244   1.542
 1521SOL    HW2 6571   1.700   2.191   1.680
 1522SOL     OW 6572   1.720   2.799   1.485
 1522SOL    HW1 6573   1.736   2.894   1.493
 1522SOL    HW2 6574   1.749   2.779   1.394
 1523SOL     OW 6575   0.897   3.206   0.047
 1523SOL    HW1 6576   0.822   3.215   0.107
 1523SOL    HW2 6577   0.906   3.293   0.007
 1524SOL     OW 6578   0.653   3.668   0.900
 1524SOL    HW1 6579   0.648   3.765   0.893
 1524SOL    HW2 6580   0.747   3.651   0.919
 1525SOL     OW 6581   0.870   2.805   0.848
 1525SOL    HW1 6582   0.920   2.738   0.896
 1525SOL    HW2 6583   0.847   2.869   0.918
 1526SOL     OW 6584   1.064   2.843   0.072
 1526SOL    HW1 6585   1.073   2.909   0.002
 1526SOL    HW2 6586   1.149   2.795   0.067
 1527SOL     OW 6587   1.854   3.417   0.823
 1527SOL    HW1 6588   1.759   3.407   0.811
 1527SOL    HW2 6589   1.875   3.350   0.890
 1528SOL     OW 6590   0.227   3.172   1.853
 1528SOL    HW1 6591   0.180   3.093   1.824
 1528SOL    HW2 6592   0.219   3.166   1.950
 1529SOL     OW 6593   0.091   3.078   0.661
 1529SOL    HW1 6594   0.121   3.041   0.745
 1529SOL    HW2 6595   0.162   3.055   0.601
 1530SOL     OW 6596   0.670   3.263   1.621
 1530SOL    HW1 6597   0.589   3.215   1.648
 1530SOL    HW2 6598   0.662   3.344   1.675
 1531SOL     OW 6599   1.817   2.031   1.238
 1531SOL    HW1 6600   1.843   1.940   1.256
 1531SOL    HW2 6601   1.824   2.035   1.141
 1532SOL     OW 6602   0.409   2.291   0.496
 1532SOL    HW1 6603   0.466   2.227   0.449
 1532SOL    HW2 6604   0.373   2.239   0.570
 1533SOL     OW 6605   1.716   3.357   1.093
 1533SOL    HW1 6606   1.633   3.324   1.054
 1533SOL    HW2 6607   1.725   3.295   1.167
 1534SOL     OW 6608   0.328   2.402   1.275
 1534SOL    HW1 6609   0.386   2.344   1.326
 1534SOL    HW2 6610   0.338   2.369   1.184
 1535SOL     OW 6611   0.832   3.444   0.667
 1535SOL    HW1 6612   0.824   3.471   0.575
 1535SOL    HW2 6613   0.748   3.400   0.683
 1536SOL     OW 6614   1.442   2.111   1.096
 1536SOL    HW1 6615   1.485   2.039   1.143
 1536SOL    HW2 6616   1.389   2.153   1.167
 1537SOL     OW 6617   1.020   1.864   1.150
 1537SOL    HW1 6618   0.962   1.789   1.127
 1537SOL    HW2 6619   1.108   1.820   1.151
 1538SOL     OW 6620   0.761   3.184   0.329
 1538SOL    HW1 6621   0.746   3.088   0.337
 1538SOL    HW2 6622   0.842   3.194   0.381
 1539SOL     OW 6623   0.595   3.416   1.279
 1539SOL    HW1 6624   0.602   3.502   1.325
 1539SOL    HW2 6625   0.685   3.407   1.245
 1540SOL     OW 6626   1.332   1.896   0.165
 1540SOL    HW1 6627   1.361   1.855   0.084
 1540SOL    HW2 6628   1.237   1.874   0.168
 1541SOL     OW 6629   1.306   2.339   0.700
 1541SOL    HW1 6630   1.245   2.415   0.702
 1541SOL    HW2 6631   1.288   2.296   0.786
 1542SOL     OW 6632   1.607   2.068   0.859
 1542SOL    HW1 6633   1.529   2.083   0.914
 1542SOL    HW2 6634   1.606   2.142   0.797
 1543SOL     OW 6635   0.062   2.952   0.277
 1543SOL    HW1 6636   0.159   2.945   0.282
 1543SOL    HW2 6637   0.037   2.862   0.302
 1544SOL     OW 6638   0.897   3.498   0.351
 1544SOL    HW1 6639   0.820   3.488   0.290
 1544SOL    HW2 6640   0.874   3.581   0.398
 1545SOL     OW 6641   0.242   2.507   1.991
 1545SOL    HW1 6642   0.157   2.484   2.032
 1545SOL    HW2 6643   0.236   2.471   1.901
 1546SOL     OW 6644   0.240   2.150   2.859
 1546SOL    HW1 6645   0.270   2.124   2.948
 1546SOL    HW2 6646   0.164   2.091   2.848
 1547SOL     OW 6647  11.094   2.237   2.509
 1547SOL    HW1 6648  11.012   2.276   2.541
 1547SOL    HW2 6649  11.066   2.149   2.478
 1548SOL     OW 6650   0.574   3.150   3.054
 1548SOL    HW1 6651   0.487   3.143   3.013
 1548SOL    HW2 6652   0.575   3.243   3.082
 1549SOL     OW 6653   1.542   3.392   2.582
 1549SOL    HW1 6654   1.508   3.366   2.669
 1549SOL    HW2 6655   1.470   3.371   2.520
 1550SOL     OW 6656   1.127   2.548   2.566
 1550SOL    HW1 6657   1.163   2.636   2.542
 1550SOL    HW2 6658   1.097   2.565   2.657
 1551SOL     OW 6659   1.804   2.398   2.091
 1551SOL    HW1 6660   1.762   2.419   2.006
 1551SOL    HW2 6661   1.736   2.347   2.135
 1552SOL     OW 6662   0.753   3.026   2.887
 1552SOL    HW1 6663   0.688   3.068   2.947
 1552SOL    HW2 6664   0.788   3.104   2.841
 1553SOL     OW 6665   0.878   2.625   3.664
 1553SOL    HW1 6666   0.872   2.695   3.730
 1553SOL    HW2 6667   0.899   2.676   3.582
 1554SOL     OW 6668   0.681   2.866   2.504
 1554SOL    HW1 6669   0.745   2.857   2.577
 1554SOL    HW2 6670   0.613   2.924   2.543
 1555SOL     OW 6671   0.701   3.013   3.666
 1555SOL    HW1 6672   0.748   3.097   3.685
 1555SOL    HW2 6673   0.613   3.045   3.637
 1556SOL     OW 6674   0.326   3.283   2.935
 1556SOL    HW1 6675   0.249   3.246   2.888
 1556SOL    HW2 6676   0.367   3.339   2.867
 1557SOL     OW 6677   1.473   3.363   3.231
 1557SOL    HW1 6678   1.526   3.445   3.241
 1557SOL    HW2 6679   1.409   3.372   3.304
 1558SOL     OW 6680   0.446   2.248   3.403
 1558SOL    HW1 6681   0.526   2.201   3.375
 1558SOL    HW2 6682   0.374   2.199   3.360
 1559SOL     OW 6683   1.603   2.297   2.606
 1559SOL    HW1 6684   1.567   2.331   2.523
 1559SOL    HW2 6685   1.645   2.376   2.641
 1560SOL     OW 6686   0.224   3.533   2.338
 1560SOL    HW1 6687   0.221   3.616   2.388
 1560SOL    HW2 6688   0.274   3.559   2.259
 1561SOL     OW 6689   1.124   3.208   3.518
 1561SOL    HW1 6690   1.166   3.209   3.605
 1561SOL    HW2 6691   1.078   3.123   3.522
 1562SOL     OW 6692   0.236   3.266   2.380
 1562SOL    HW1 6693   0.237   3.364   2.370
 1562SOL    HW2 6694   0.164   3.254   2.443
 1563SOL     OW 6695   0.262   2.978   2.768
 1563SOL    HW1 6696   0.248   2.895   2.816
 1563SOL    HW2 6697   0.194   3.036   2.807
 1564SOL     OW 6698   0.613   3.670   3.267
 1564SOL    HW1 6699   0.539   3.642   3.323
 1564SOL    HW2 6700   0.632   3.760   3.302
 1565SOL     OW 6701   0.579   2.854   1.984
 1565SOL    HW1 6702   0.624   2.909   1.917
 1565SOL    HW2 6703   0.625   2.884   2.065
 1566SOL     OW 6704   1.612   1.965   3.357
 1566SOL    HW1 6705   1.607   2.037   3.293
 1566SOL    HW2 6706   1.617   2.014   3.441
 1567SOL     OW 6707   0.124   2.499   2.414
 1567SOL    HW1 6708   0.106   2.405   2.424
 1567SOL    HW2 6709   0.103   2.535   2.503
 1568SOL     OW 6710   1.852   3.600   2.204
 1568SOL    HW1 6711   1.922   3.585   2.271
 1568SOL    HW2 6712   1.868   3.692   2.178
 1569SOL     OW 6713   0.058   3.457   1.991
 1569SOL    HW1 6714   0.039   3.362   2.004
 1569SOL    HW2 6715   0.013   3.499   2.064
 1570SOL     OW 6716   1.672   2.814   2.557
 1570SOL    HW1 6717   1.733   2.765   2.498
 1570SOL    HW2 6718   1.619   2.859   2.490
 1571SOL     OW 6719   1.631   3.004   2.301
 1571SOL    HW1 6720   1.710   2.951   2.285
 1571SOL    HW2 6721   1.658   3.064   2.372
 1572SOL     OW 6722   0.120   2.593   3.455
 1572SOL    HW1 6723   0.207   2.635   3.454
 1572SOL    HW2 6724   0.059   2.665   3.431
 1573SOL     OW 6725   0.612   3.258   2.622
 1573SOL    HW1 6726   0.570   3.172   2.637
 1573SOL    HW2 6727   0.600   3.265   2.526
 1574SOL     OW 6728   1.281   3.090   3.282
 1574SOL    HW1 6729   1.313   3.016   3.227
 1574SOL    HW2 6730   1.333   3.077   3.364
 1575SOL     OW 6731   0.817   1.858   2.371
 1575SOL    HW1 6732   0.846   1.950   2.360
 1575SOL    HW2 6733   0.720   1.867   2.367
 1576SOL     OW 6734   0.176   2.855   3.106
 1576SOL    HW1 6735   0.260   2.806   3.098
 1576SOL    HW2 6736   0.111   2.791   3.075
 1577SOL     OW 6737   1.554   2.814   2.044
 1577SOL    HW1 6738   1.472   2.779   2.086
 1577SOL    HW2 6739   1.614   2.814   2.120
 1578SOL     OW 6740   1.178   3.660   3.479
 1578SOL    HW1 6741   1.179   3.726   3.408
 1578SOL    HW2 6742   1.202   3.579   3.431
 1579SOL     OW 6743   0.330   2.094   3.686
 1579SOL    HW1 6744   0.393   2.165   3.697
 1579SOL    HW2 6745   0.246   2.133   3.716
 1580SOL     OW 6746   1.474   3.290   2.827
 1580SOL    HW1 6747   1.407   3.308   2.895
 1580SOL    HW2 6748   1.451   3.198   2.800
 1581SOL     OW 6749   1.658   3.599   2.463
 1581SOL    HW1 6750   1.651   3.554   2.378
 1581SOL    HW2 6751   1.628   3.529   2.524
 1582SOL     OW 6752   0.590   2.582   2.120
 1582SOL    HW1 6753   0.597   2.674   2.092
 1582SOL    HW2 6754   0.518   2.586   2.187
 1583SOL     OW 6755   1.289   2.217   2.802
 1583SOL    HW1 6756   1.198   2.183   2.801
 1583SOL    HW2 6757   1.333   2.156   2.863
 1584SOL     OW 6758   1.571   3.511   2.164
 1584SOL    HW1 6759   1.665   3.531   2.174
 1584SOL    HW2 6760   1.566   3.500   2.067
 1585SOL     OW 6761   0.786   2.487   3.327
 1585SOL    HW1 6762   0.768   2.453   3.417
 1585SOL    HW2 6763   0.746   2.419   3.270
 1586SOL     OW 6764   1.397   2.343   3.535
 1586SOL    HW1 6765   1.406   2.402   3.612
 1586SOL    HW2 6766   1.461   2.272   3.557
 1587SOL     OW 6767   0.958   2.747   3.440
 1587SOL    HW1 6768   0.997   2.667   3.400
 1587SOL    HW2 6769   0.912   2.787   3.363
 1588SOL     OW 6770   0.954   2.225   3.080
 1588SOL    HW1 6771   0.884   2.275   3.124
 1588SOL    HW2 6772   0.952   2.263   2.991
 1589SOL     OW 6773   1.044   2.543   2.270
 1589SOL    HW1 6774   1.066   2.561   2.362
 1589SOL    HW2 6775   0.958   2.496   2.277
 1590SOL     OW 6776   0.082   2.665   2.632
 1590SOL    HW1 6777   0.167   2.657   2.680
 1590SOL    HW2 6778   0.043   2.741   2.678
 1591SOL     OW 6779   0.142   3.670   3.428
 1591SOL    HW1 6780   0.140   3.663   3.525
 1591SOL    HW2 6781   0.053   3.697   3.405
 1592SOL     OW 6782   0.888   2.262   2.063
 1592SOL    HW1 6783   0.938   2.314   1.998
 1592SOL    HW2 6784   0.901   2.172   2.029
 1593SOL     OW 6785   1.715   2.451   3.696
 1593SOL    HW1 6786   1.675   2.526   3.645
 1593SOL    HW2 6787   1.746   2.396   3.623
 1594SOL     OW 6788   1.361   3.014   2.423
 1594SOL    HW1 6789   1.443   3.004   2.371
 1594SOL    HW2 6790   1.311   3.075   2.367
 1595SOL     OW 6791   0.588   2.063   2.752
 1595SOL    HW1 6792   0.586   2.079   2.849
 1595SOL    HW2 6793   0.565   2.150   2.717
 1596SOL     OW 6794   0.979   3.299   2.352
 1596SOL    HW1 6795   0.944   3.364   2.288
 1596SOL    HW2 6796   0.987   3.353   2.433
 1597SOL     OW 6797   0.380   3.677   2.697
 1597SOL    HW1 6798   0.394   3.582   2.714
 1597SOL    HW2 6799   0.468   3.711   2.718
 1598SOL     OW 6800   1.804   2.942   2.754
 1598SOL    HW1 6801   1.761   2.900   2.676
 1598SOL    HW2 6802   1.740   2.920   2.823
 1599SOL     OW 6803   1.220   3.421   3.361
 1599SOL    HW1 6804   1.197   3.350   3.423
 1599SOL    HW2 6805   1.177   3.389   3.280
 1600SOL     OW 6806   0.322   2.813   2.118
 1600SOL    HW1 6807   0.394   2.838   2.057
 1600SOL    HW2 6808   0.295   2.726   2.084
 1601SOL     OW 6809   1.472   2.621   2.590
 1601SOL    HW1 6810   1.470   2.583   2.678
 1601SOL    HW2 6811   1.553   2.674   2.592
 1602SOL     OW 6812   0.463   3.118   3.587
 1602SOL    HW1 6813   0.438   3.124   3.492
 1602SOL    HW2 6814   0.382   3.150   3.630
 1603SOL     OW 6815   1.096   3.641   2.101
 1603SOL    HW1 6816   1.027   3.588   2.145
 1603SOL    HW2 6817   1.115   3.588   2.021
 1604SOL     OW 6818   0.189   2.140   3.346
 1604SOL    HW1 6819   0.108   2.192   3.341
 1604SOL    HW2 6820   0.167   2.072   3.411
 1605SOL     OW 6821   1.617   3.230   1.957
 1605SOL    HW1 6822   1.572   3.309   1.924
 1605SOL    HW2 6823   1.560   3.157   1.926
 1606SOL     OW 6824   0.450   3.602   2.180
 1606SOL    HW1 6825   0.499   3.649   2.249
 1606SOL    HW2 6826   0.520   3.567   2.123
 1607SOL     OW 6827   1.396   1.958   2.297
 1607SOL    HW1 6828   1.398   1.929   2.204
 1607SOL    HW2 6829   1.490   1.982   2.311
 1608SOL     OW 6830   0.257   3.650   3.091
 1608SOL    HW1 6831   0.301   3.572   3.127
 1608SOL    HW2 6832   0.240   3.624   2.999
 1609SOL     OW 6833   0.944   3.562   2.756
 1609SOL    HW1 6834   1.030   3.520   2.775
 1609SOL    HW2 6835   0.913   3.510   2.680
 1610SOL     OW 6836   0.411   2.557   2.321
 1610SOL    HW1 6837   0.430   2.462   2.336
 1610SOL    HW2 6838   0.321   2.562   2.356
 1611SOL     OW 6839   1.546   2.120   3.591
 1611SOL    HW1 6840   1.546   2.130   3.690
 1611SOL    HW2 6841   1.494   2.039   3.583
 1612SOL     OW 6842   0.634   1.997   1.949
 1612SOL    HW1 6843   0.698   1.932   1.982
 1612SOL    HW2 6844   0.587   1.945   1.880
 1613SOL     OW 6845   0.772   2.145   3.618
 1613SOL    HW1 6846   0.849   2.084   3.617
 1613SOL    HW2 6847   0.716   2.106   3.688
 1614SOL     OW 6848   0.871   3.399   3.056
 1614SOL    HW1 6849   0.862   3.374   2.962
 1614SOL    HW2 6850   0.930   3.331   3.091
 1615SOL     OW 6851   1.333   2.457   3.291
 1615SOL    HW1 6852   1.373   2.425   3.374
 1615SOL    HW2 6853   1.390   2.534   3.268
 1616SOL     OW 6854   0.829   3.273   2.805
 1616SOL    HW1 6855   0.916   3.258   2.762
 1616SOL    HW2 6856   0.768   3.277   2.729
 1617SOL     OW 6857   0.950   2.373   2.772
 1617SOL    HW1 6858   0.920   2.374   2.678
 1617SOL    HW2 6859   0.976   2.280   2.780
 1618SOL     OW 6860   0.554   1.916   2.351
 1618SOL    HW1 6861   0.472   1.916   2.402
 1618SOL    HW2 6862   0.543   1.997   2.296
 1619SOL     OW 6863   1.449   3.032   1.885
 1619SOL    HW1 6864   1.479   2.958   1.942
 1619SOL    HW2 6865   1.363   3.055   1.922
 1620SOL     OW 6866   0.283   1.901   2.063
 1620SOL    HW1 6867   0.341   1.967   2.023
 1620SOL    HW2 6868   0.347   1.840   2.106
 1621SOL     OW 6869   0.929   2.115   2.353
 1621SOL    HW1 6870   0.909   2.167   2.274
 1621SOL    HW2 6871   1.026   2.125   2.358
 1622SOL     OW 6872   1.081   2.544   3.318
 1622SOL    HW1 6873   1.038   2.459   3.332
 1622SOL    HW2 6874   1.176   2.521   3.315
 1623SOL     OW 6875   1.226   3.448   2.655
 1623SOL    HW1 6876   1.231   3.509   2.580
 1623SOL    HW2 6877   1.307   3.468   2.703
 1624SOL     OW 6878   0.465   3.023   2.592
 1624SOL    HW1 6879   0.390   3.008   2.653
 1624SOL    HW2 6880   0.425   3.000   2.506
 1625SOL     OW 6881   1.258   3.674   2.463
 1625SOL    HW1 6882   1.314   3.731   2.406
 1625SOL    HW2 6883   1.221   3.738   2.524
 1626SOL     OW 6884   1.059   2.404   1.882
 1626SOL    HW1 6885   1.009   2.485   1.860
 1626SOL    HW2 6886   1.130   2.436   1.940
 1627SOL     OW 6887   0.074   2.422   3.252
 1627SOL    HW1 6888   0.164   2.425   3.215
 1627SOL    HW2 6889   0.080   2.489   3.323
 1628SOL     OW 6890   0.586   2.078   3.027
 1628SOL    HW1 6891   0.619   1.997   3.067
 1628SOL    HW2 6892   0.492   2.077   3.055
 1629SOL     OW 6893   0.872   2.321   2.528
 1629SOL    HW1 6894   0.831   2.373   2.458
 1629SOL    HW2 6895   0.884   2.235   2.485
 1630SOL     OW 6896   0.980   1.924   2.635
 1630SOL    HW1 6897   0.947   1.928   2.544
 1630SOL    HW2 6898   0.992   1.829   2.650
 1631SOL     OW 6899   1.423   3.043   2.748
 1631SOL    HW1 6900   1.359   2.972   2.759
 1631SOL    HW2 6901   1.438   3.042   2.652
 1632SOL     OW 6902   1.451   2.451   2.864
 1632SOL    HW1 6903   1.414   2.365   2.842
 1632SOL    HW2 6904   1.526   2.431   2.922
 1633SOL     OW 6905   0.496   3.255   2.023
 1633SOL    HW1 6906   0.409   3.241   2.065
 1633SOL    HW2 6907   0.480   3.230   1.932
 1634SOL     OW 6908   1.676   3.156   2.524
 1634SOL    HW1 6909   1.773   3.160   2.526
 1634SOL    HW2 6910   1.648   3.244   2.554
 1635SOL     OW 6911   1.414   2.464   1.931
 1635SOL    HW1 6912   1.371   2.424   2.009
 1635SOL    HW2 6913   1.508   2.443   1.946
 1636SOL     OW 6914   0.525   2.110   2.171
 1636SOL    HW1 6915   0.567   2.075   2.090
 1636SOL    HW2 6916   0.496   2.197   2.137
 1637SOL     OW 6917   1.731   3.090   3.437
 1637SOL    HW1 6918   1.821   3.053   3.443
 1637SOL    HW2 6919   1.749   3.185   3.448
 1638SOL     OW 6920   1.060   3.223   3.201
 1638SOL    HW1 6921   0.984   3.187   3.248
 1638SOL    HW2 6922   1.134   3.172   3.242
 1639SOL     OW 6923   1.607   3.466   3.499
 1639SOL    HW1 6924   1.612   3.512   3.414
 1639SOL    HW2 6925   1.692   3.418   3.501
 1640SOL     OW 6926   1.138   3.088   2.963
 1640SOL    HW1 6927   1.067   3.116   3.022
 1640SOL    HW2 6928   1.114   3.130   2.878
 1641SOL     OW 6929   1.595   2.952   2.940
 1641SOL    HW1 6930   1.605   3.022   3.007
 1641SOL    HW2 6931   1.543   2.998   2.872
 1642SOL     OW 6932   0.936   1.958   3.271
 1642SOL    HW1 6933   0.919   2.027   3.205
 1642SOL    HW2 6934   1.016   1.995   3.314
 1643SOL     OW 6935   0.994   2.975   3.594
 1643SOL    HW1 6936   0.900   2.993   3.614
 1643SOL    HW2 6937   0.990   2.900   3.533
 1644SOL     OW 6938   0.710   2.919   2.222
 1644SOL    HW1 6939   0.687   2.891   2.312
 1644SOL    HW2 6940   0.791   2.866   2.204
 1645SOL     OW 6941   0.386   2.686   3.123
 1645SOL    HW1 6942   0.461   2.692   3.186
 1645SOL    HW2 6943   0.368   2.590   3.123
 1646SOL     OW 6944   1.289   2.245   3.136
 1646SOL    HW1 6945   1.310   2.325   3.189
 1646SOL    HW2 6946   1.209   2.273   3.089
 1647SOL     OW 6947   0.029   3.432   3.242
 1647SOL    HW1 6948   0.005   3.504   3.183
 1647SOL    HW2 6949   0.125   3.444   3.251
 1648SOL     OW 6950   0.362   2.954   2.353
 1648SOL    HW1 6951   0.378   3.027   2.292
 1648SOL    HW2 6952   0.342   2.881   2.293
 1649SOL     OW 6953   0.554   2.400   2.711
 1649SOL    HW1 6954   0.582   2.463   2.641
 1649SOL    HW2 6955   0.606   2.429   2.787
 1650SOL     OW 6956   1.216   3.200   2.245
 1650SOL    HW1 6957   1.264   3.272   2.289
 1650SOL    HW2 6958   1.126   3.212   2.280
 1651SOL     OW 6959   1.297   3.334   3.031
 1651SOL    HW1 6960   1.361   3.331   3.105
 1651SOL    HW2 6961   1.241   3.256   3.047
 1652SOL     OW 6962   1.587   2.471   2.339
 1652SOL    HW1 6963   1.538   2.543   2.382
 1652SOL    HW2 6964   1.664   2.520   2.305
 1653SOL     OW 6965   0.321   3.381   3.179
 1653SOL    HW1 6966   0.313   3.337   3.092
 1653SOL    HW2 6967   0.417   3.400   3.179
 1654SOL     OW 6968   0.424   2.599   3.474
 1654SOL    HW1 6969   0.482   2.642   3.410
 1654SOL    HW2 6970   0.456   2.508   3.469
 1655SOL     OW 6971   1.622   2.636   3.540
 1655SOL    HW1 6972   1.533   2.676   3.533
 1655SOL    HW2 6973   1.668   2.681   3.465
 1656SOL     OW 6974   0.985   1.975   3.609
 1656SOL    HW1 6975   1.050   2.046   3.601
 1656SOL    HW2 6976   1.033   1.900   3.574
 1657SOL     OW 6977   0.491   1.887   3.615
 1657SOL    HW1 6978   0.453   1.829   3.547
 1657SOL    HW2 6979   0.422   1.956   3.624
 1658SOL     OW 6980   0.600   2.759   2.891
 1658SOL    HW1 6981   0.625   2.853   2.889
 1658SOL    HW2 6982   0.534   2.755   2.961
 1659SOL     OW 6983   1.344   2.714   2.896
 1659SOL    HW1 6984   1.262   2.681   2.857
 1659SOL    HW2 6985   1.398   2.634   2.898
 1660SOL     OW 6986   1.232   2.370   2.129
 1660SOL    HW1 6987   1.240   2.295   2.190
 1660SOL    HW2 6988   1.171   2.429   2.178
 1661SOL     OW 6989   0.320   2.057   3.103
 1661SOL    HW1 6990   0.265   2.083   3.179
 1661SOL    HW2 6991   0.301   1.960   3.098
 1662SOL     OW 6992   0.066   3.178   3.138
 1662SOL    HW1 6993   0.112   3.125   3.205
 1662SOL    HW2 6994   0.052   3.263   3.183
 1663SOL     OW 6995   0.723   2.505   2.911
 1663SOL    HW1 6996   0.805   2.487   2.863
 1663SOL    HW2 6997   0.703   2.598   2.891
 1664SOL     OW 6998   1.763   2.816   3.708
 1664SOL    HW1 6999   1.715   2.752   3.653
 1664SOL    HW2 7000   1.701   2.828   3.781
 1665SOL     OW 7001   0.289   1.911   2.464
 1665SOL    HW1 7002   0.265   2.002   2.488
 1665SOL    HW2 7003   0.312   1.874   2.551
 1666SOL     OW 7004   1.586   2.239   2.210
 1666SOL    HW1 7005   1.631   2.173   2.265
 1666SOL    HW2 7006   1.588   2.319   2.266
 1667SOL     OW 7007   1.061   2.612   2.834
 1667SOL    HW1 7008   1.036   2.627   2.927
 1667SOL    HW2 7009   1.033   2.520   2.821
 1668SOL     OW 7010   0.973   3.430   3.562
 1668SOL    HW1 7011   0.961   3.489   3.484
 1668SOL    HW2 7012   1.000   3.346   3.520
 1669SOL     OW 7013   1.854   3.350   3.457
 1669SOL    HW1 7014   1.876   3.378   3.367
 1669SOL    HW2 7015   1.932   3.380   3.508
 1670SOL     OW 7016   0.339   2.727   3.696
 1670SOL    HW1 7017   0.423   2.768   3.721
 1670SOL    HW2 7018   0.366   2.672   3.619
 1671SOL     OW 7019   1.512   2.113   1.984
 1671SOL    HW1 7020   1.442   2.055   2.018
 1671SOL    HW2 7021   1.547   2.156   2.065
 1672SOL     OW 7022   1.292   2.702   1.892
 1672SOL    HW1 7023   1.337   2.618   1.911
 1672SOL    HW2 7024   1.326   2.720   1.802
 1673SOL     OW 7025   1.068   3.227   2.710
 1673SOL    HW1 7026   1.072   3.154   2.645
 1673SOL    HW2 7027   1.136   3.290   2.679
 1674SOL     OW 7028   0.284   2.689   2.820
 1674SOL    HW1 7029   0.371   2.711   2.784
 1674SOL    HW2 7030   0.301   2.604   2.864
 1675SOL     OW 7031   0.336   2.411   2.864
 1675SOL    HW1 7032   0.297   2.322   2.851
 1675SOL    HW2 7033   0.407   2.410   2.797
 1676SOL     OW 7034   1.159   2.230   3.566
 1676SOL    HW1 7035   1.115   2.286   3.633
 1676SOL    HW2 7036   1.248   2.270   3.562
 1677SOL     OW 7037   1.164   2.074   3.338
 1677SOL    HW1 7038   1.172   2.131   3.418
 1677SOL    HW2 7039   1.217   2.123   3.273
 1678SOL     OW 7040  11.090   3.191   2.052
 1678SOL    HW1 7041  11.000   3.200   2.020
 1678SOL    HW2 7042  11.088   3.103   2.096
 1679SOL     OW 7043   0.147   3.648   2.822
 1679SOL    HW1 7044   0.108   3.585   2.759
 1679SOL    HW2 7045   0.230   3.672   2.775
 1680SOL     OW 7046   0.491   3.443   2.780
 1680SOL    HW1 7047   0.565   3.506   2.790
 1680SOL    HW2 7048   0.531   3.373   2.724
 1681SOL     OW 7049   0.955   2.617   3.086
 1681SOL    HW1 7050   1.003   2.600   3.169
 1681SOL    HW2 7051   0.863   2.609   3.115
 1682SOL     OW 7052  11.083   2.463   2.956
 1682SOL    HW1 7053   0.051   2.426   2.900
 1682SOL    HW2 7054   0.007   2.432   3.044
 1683SOL     OW 7055   0.221   2.400   3.614
 1683SOL    HW1 7056   0.273   2.350   3.550
 1683SOL    HW2 7057   0.173   2.462   3.556
 1684SOL     OW 7058   1.380   2.761   3.510
 1684SOL    HW1 7059   1.398   2.857   3.507
 1684SOL    HW2 7060   1.367   2.741   3.416
 1685SOL     OW 7061   0.802   2.429   2.263
 1685SOL    HW1 7062   0.815   2.370   2.186
 1685SOL    HW2 7063   0.722   2.478   2.237
 1686SOL     OW 7064   1.647   2.481   3.073
 1686SOL    HW1 7065   1.631   2.410   3.137
 1686SOL    HW2 7066   1.728   2.449   3.028
 1687SOL     OW 7067   0.268   3.410   3.590
 1687SOL    HW1 7068   0.232   3.486   3.637
 1687SOL    HW2 7069   0.248   3.336   3.650
 1688SOL     OW 7070   0.689   2.337   3.126
 1688SOL    HW1 7071   0.649   2.257   3.088
 1688SOL    HW2 7072   0.686   2.400   3.051
 1689SOL     OW 7073   0.906   3.560   3.334
 1689SOL    HW1 7074   0.898   3.523   3.245
 1689SOL    HW2 7075   0.902   3.656   3.319
 1690SOL     OW 7076   0.455   2.346   2.056
 1690SOL    HW1 7077   0.523   2.415   2.056
 1690SOL    HW2 7078   0.374   2.401   2.048
 1691SOL     OW 7079   0.162   2.996   3.346
 1691SOL    HW1 7080   0.171   2.939   3.424
 1691SOL    HW2 7081   0.167   2.933   3.271
 1692SOL     OW 7082   1.321   2.901   3.094
 1692SOL    HW1 7083   1.341   2.841   3.020
 1692SOL    HW2 7084   1.260   2.963   3.051
 1693SOL     OW 7085   1.316   2.723   2.160
 1693SOL    HW1 7086   1.236   2.689   2.201
 1693SOL    HW2 7087   1.297   2.718   2.065
 1694SOL     OW 7088   1.749   3.615   2.988
 1694SOL    HW1 7089   1.823   3.644   2.931
 1694SOL    HW2 7090   1.747   3.518   2.969
 1695SOL     OW 7091   1.236   3.587   2.973
 1695SOL    HW1 7092   1.328   3.612   2.955
 1695SOL    HW2 7093   1.244   3.491   2.993
 1696SOL     OW 7094   0.088   3.151   2.876
 1696SOL    HW1 7095   0.085   3.165   2.974
 1696SOL    HW2 7096   0.013   3.091   2.863
 1697SOL     OW 7097   0.673   3.508   3.605
 1697SOL    HW1 7098   0.614   3.583   3.589
 1697SOL    HW2 7099   0.749   3.530   3.550
 1698SOL     OW 7100   1.669   1.998   2.345
 1698SOL    HW1 7101   1.752   1.999   2.293
 1698SOL    HW2 7102   1.681   1.918   2.400
 1699SOL     OW 7103   1.362   3.432   2.346
 1699SOL    HW1 7104   1.424   3.445   2.272
 1699SOL    HW2 7105   1.326   3.521   2.360
 1700SOL     OW 7106   0.171   3.647   3.704
 1700SOL    HW1 7107   0.121   3.582   3.759
 1700SOL    HW2 7108   0.214   3.700   3.773
 1701SOL     OW 7109   1.252   2.786   2.529
 1701SOL    HW1 7110   1.332   2.735   2.546
 1701SOL    HW2 7111   1.288   2.862   2.479
 1702SOL     OW 7112   0.807   3.127   3.296
 1702SOL    HW1 7113   0.774   3.178   3.374
 1702SOL    HW2 7114   0.733   3.140   3.234
 1703SOL     OW 7115   0.669   3.475   2.021
 1703SOL    HW1 7116   0.676   3.485   1.924
 1703SOL    HW2 7117   0.621   3.391   2.029
 1704SOL     OW 7118   1.619   3.580   3.248
 1704SOL    HW1 7119   1.667   3.594   3.164
 1704SOL    HW2 7120   1.608   3.671   3.280
 1705SOL     OW 7121   1.838   2.028   2.845
 1705SOL    HW1 7122   1.866   1.952   2.791
 1705SOL    HW2 7123   1.754   2.054   2.801
 1706SOL     OW 7124   0.255   2.159   2.566
 1706SOL    HW1 7125   0.162   2.187   2.558
 1706SOL    HW2 7126   0.268   2.163   2.662
 1707SOL     OW 7127   1.177   3.486   1.892
 1707SOL    HW1 7128   1.192   3.391   1.905
 1707SOL    HW2 7129   1.119   3.489   1.813
 1708SOL     OW 7130   0.807   2.862   3.244
 1708SOL    HW1 7131   0.827   2.866   3.150
 1708SOL    HW2 7132   0.813   2.956   3.271
 1709SOL     OW 7133   0.926   2.778   2.142
 1709SOL    HW1 7134   0.995   2.811   2.082
 1709SOL    HW2 7135   0.962   2.694   2.175
 1710SOL     OW 7136   1.549   3.499   1.888
 1710SOL    HW1 7137   1.453   3.504   1.878
 1710SOL    HW2 7138   1.578   3.491   1.795
 1711SOL     OW 7139   0.387   3.143   3.333
 1711SOL    HW1 7140   0.366   3.225   3.286
 1711SOL    HW2 7141   0.306   3.089   3.322
 1712SOL     OW 7142   1.606   3.167   3.118
 1712SOL    HW1 7143   1.660   3.143   3.195
 1712SOL    HW2 7144   1.551   3.239   3.155
 1713SOL     OW 7145   1.029   2.987   2.571
 1713SOL    HW1 7146   0.964   2.927   2.613
 1713SOL    HW2 7147   1.095   2.925   2.537
 1714SOL     OW 7148   1.043   2.102   2.827
 1714SOL    HW1 7149   1.017   2.049   2.749
 1714SOL    HW2 7150   1.015   2.047   2.901
 1715SOL     OW 7151   0.602   3.309   2.350
 1715SOL    HW1 7152   0.662   3.284   2.278
 1715SOL    HW2 7153   0.534   3.360   2.304
 1716SOL     OW 7154   1.715   2.242   3.237
 1716SOL    HW1 7155   1.784   2.310   3.238
 1716SOL    HW2 7156   1.760   2.169   3.190
 1717SOL     OW 7157   0.242   3.217   2.124
 1717SOL    HW1 7158   0.145   3.225   2.110
 1717SOL    HW2 7159   0.249   3.230   2.221
 1718SOL     OW 7160   0.144   2.890   3.605
 1718SOL    HW1 7161   0.066   2.867   3.656
 1718SOL    HW2 7162   0.213   2.830   3.641
 1719SOL     OW 7163   0.683   2.061   3.361
 1719SOL    HW1 7164   0.775   2.032   3.349
 1719SOL    HW2 7165   0.687   2.098   3.451
 1720SOL     OW 7166   0.092   2.197   1.912
 1720SOL    HW1 7167   0.000   2.193   1.882
 1720SOL    HW2 7168   0.125   2.272   1.859
 1721SOL     OW 7169   1.455   2.713   3.241
 1721SOL    HW1 7170   1.409   2.779   3.184
 1721SOL    HW2 7171   1.547   2.737   3.226
 1722SOL     OW 7172   0.066   2.031   2.174
 1722SOL    HW1 7173   0.064   2.103   2.109
 1722SOL    HW2 7174   0.145   1.981   2.147
 1723SOL     OW 7175   1.210   3.205   1.972
 1723SOL    HW1 7176   1.124   3.162   1.979
 1723SOL    HW2 7177   1.235   3.210   2.067
 1724SOL     OW 7178   0.606   2.688   3.286
 1724SOL    HW1 7179   0.663   2.767   3.287
 1724SOL    HW2 7180   0.675   2.620   3.296
 1725SOL     OW 7181   1.528   3.601   2.816
 1725SOL    HW1 7182   1.553   3.665   2.748
 1725SOL    HW2 7183   1.597   3.614   2.883
 1726SOL     OW 7184   0.716   2.416   3.583
 1726SOL    HW1 7185   0.770   2.481   3.631
 1726SOL    HW2 7186   0.743   2.330   3.619
 1727SOL     OW 7187   1.458   3.034   3.487
 1727SOL    HW1 7188   1.453   3.041   3.585
 1727SOL    HW2 7189   1.551   3.054   3.470
 1728SOL     OW 7190   0.396   3.585   3.423
 1728SOL    HW1 7191   0.309   3.628   3.408
 1728SOL    HW2 7192   0.366   3.503   3.467
 1729SOL     OW 7193   1.702   2.749   3.096
 1729SOL    HW1 7194   1.677   2.660   3.065
 1729SOL    HW2 7195   1.657   2.809   3.033
 1730SOL     OW 7196   1.203   2.177   2.340
 1730SOL    HW1 7197   1.281   2.120   2.329
 1730SOL    HW2 7198   1.231   2.236   2.413
 1731SOL     OW 7199   0.610   2.600   2.513
 1731SOL    HW1 7200   0.639   2.693   2.509
 1731SOL    HW2 7201   0.542   2.596   2.445
 1732SOL     OW 7202   1.771   2.240   3.500
 1732SOL    HW1 7203   1.738   2.253   3.409
 1732SOL    HW2 7204   1.696   2.191   3.540
 1733SOL     OW 7205   1.737   2.789   3.359
 1733SOL    HW1 7206   1.730   2.885   3.355
 1733SOL    HW2 7207   1.754   2.766   3.265
 1734SOL     OW 7208   0.850   3.230   1.892
 1734SOL    HW1 7209   0.831   3.243   1.986
 1734SOL    HW2 7210   0.884   3.316   1.861
 1735SOL     OW 7211   0.654   3.672   2.767
 1735SOL    HW1 7212   0.652   3.770   2.758
 1735SOL    HW2 7213   0.749   3.652   2.771
 1736SOL     OW 7214   0.875   2.808   2.704
 1736SOL    HW1 7215   0.929   2.738   2.742
 1736SOL    HW2 7216   0.855   2.864   2.781
 1737SOL     OW 7217   1.094   2.866   1.951
 1737SOL    HW1 7218   1.068   2.916   1.872
 1737SOL    HW2 7219   1.162   2.805   1.917
 1738SOL     OW 7220   1.859   3.424   2.689
 1738SOL    HW1 7221   1.763   3.422   2.685
 1738SOL    HW2 7222   1.878   3.354   2.753
 1739SOL     OW 7223   0.222   3.170   3.714
 1739SOL    HW1 7224   0.178   3.089   3.687
 1739SOL    HW2 7225   0.215   3.169   3.811
 1740SOL     OW 7226   0.076   3.103   2.524
 1740SOL    HW1 7227   0.090   3.038   2.594
 1740SOL    HW2 7228   0.148   3.082   2.463
 1741SOL     OW 7229   0.664   3.263   3.481
 1741SOL    HW1 7230   0.587   3.211   3.510
 1741SOL    HW2 7231   0.655   3.345   3.533
 1742SOL     OW 7232   1.824   2.026   3.107
 1742SOL    HW1 7233   1.832   1.930   3.111
 1742SOL    HW2 7234   1.829   2.040   3.010
 1743SOL     OW 7235   0.427   2.295   2.387
 1743SOL    HW1 7236   0.453   2.229   2.323
 1743SOL    HW2 7237   0.375   2.245   2.452
 1744SOL     OW 7238   1.720   3.356   2.943
 1744SOL    HW1 7239   1.633   3.340   2.903
 1744SOL    HW2 7240   1.718   3.290   3.015
 1745SOL     OW 7241   0.332   2.410   3.139
 1745SOL    HW1 7242   0.395   2.349   3.179
 1745SOL    HW2 7243   0.335   2.385   3.045
 1746SOL     OW 7244   0.831   3.452   2.534
 1746SOL    HW1 7245   0.817   3.487   2.444
 1746SOL    HW2 7246   0.751   3.400   2.548
 1747SOL     OW 7247   1.415   2.069   2.978
 1747SOL    HW1 7248   1.478   2.012   3.024
 1747SOL    HW2 7249   1.383   2.129   3.048
 1748SOL     OW 7250   0.794   3.197   2.173
 1748SOL    HW1 7251   0.762   3.105   2.179
 1748SOL    HW2 7252   0.862   3.197   2.242
 1749SOL     OW 7253   0.593   3.414   3.141
 1749SOL    HW1 7254   0.597   3.499   3.187
 1749SOL    HW2 7255   0.686   3.408   3.111
 1750SOL     OW 7256   1.319   1.910   2.024
 1750SOL    HW1 7257   1.332   1.835   1.965
 1750SOL    HW2 7258   1.231   1.888   2.063
 1751SOL     OW 7259   1.277   2.327   2.543
 1751SOL    HW1 7260   1.227   2.411   2.540
 1751SOL    HW2 7261   1.281   2.307   2.637
 1752SOL     OW 7262   1.594   2.059   2.739
 1752SOL    HW1 7263   1.517   2.071   2.796
 1752SOL    HW2 7264   1.588   2.136   2.680
 1753SOL     OW 7265   0.047   2.939   2.161
 1753SOL    HW1 7266   0.143   2.937   2.148
 1753SOL    HW2 7267   0.028   2.845   2.180
 1754SOL     OW 7268   0.883   3.508   2.196
 1754SOL    HW1 7269   0.808   3.495   2.134
 1754SOL    HW2 7270   0.859   3.590   2.244
 1755SOL     OW 7271   0.229   2.152   4.719
 1755SOL    HW1 7272   0.260   2.127   4.808
 1755SOL    HW2 7273   0.158   2.087   4.707
 1756SOL     OW 7274  11.092   2.244   4.357
 1756SOL    HW1 7275  11.030   2.260   4.428
 1756SOL    HW2 7276  11.068   2.152   4.330
 1757SOL     OW 7277   0.571   3.162   4.904
 1757SOL    HW1 7278   0.479   3.157   4.872
 1757SOL    HW2 7279   0.573   3.252   4.940
 1758SOL     OW 7280   1.529   3.392   4.434
 1758SOL    HW1 7281   1.498   3.365   4.523
 1758SOL    HW2 7282   1.449   3.392   4.378
 1759SOL     OW 7283   1.128   2.570   4.487
 1759SOL    HW1 7284   1.161   2.643   4.431
 1759SOL    HW2 7285   1.037   2.559   4.458
 1760SOL     OW 7286   1.776   2.467   3.954
 1760SOL    HW1 7287   1.752   2.466   3.859
 1760SOL    HW2 7288   1.719   2.398   3.991
 1761SOL     OW 7289   0.732   3.022   4.732
 1761SOL    HW1 7290   0.673   3.062   4.800
 1761SOL    HW2 7291   0.779   3.103   4.703
 1762SOL     OW 7292   0.884   2.613   5.526
 1762SOL    HW1 7293   0.858   2.677   5.593
 1762SOL    HW2 7294   0.907   2.668   5.449
 1763SOL     OW 7295   0.679   2.869   4.366
 1763SOL    HW1 7296   0.745   2.867   4.438
 1763SOL    HW2 7297   0.608   2.924   4.403
 1764SOL     OW 7298   0.714   3.014   5.512
 1764SOL    HW1 7299   0.761   3.095   5.541
 1764SOL    HW2 7300   0.626   3.048   5.488
 1765SOL     OW 7301   0.324   3.291   4.795
 1765SOL    HW1 7302   0.248   3.257   4.746
 1765SOL    HW2 7303   0.371   3.343   4.727
 1766SOL     OW 7304   1.475   3.343   5.095
 1766SOL    HW1 7305   1.532   3.422   5.105
 1766SOL    HW2 7306   1.411   3.356   5.166
 1767SOL     OW 7307   0.434   2.244   5.262
 1767SOL    HW1 7308   0.514   2.194   5.242
 1767SOL    HW2 7309   0.362   2.188   5.228
 1768SOL     OW 7310   1.625   2.311   4.456
 1768SOL    HW1 7311   1.556   2.351   4.401
 1768SOL    HW2 7312   1.625   2.367   4.533
 1769SOL     OW 7313   0.244   3.524   4.203
 1769SOL    HW1 7314   0.232   3.605   4.256
 1769SOL    HW2 7315   0.284   3.559   4.123
 1770SOL     OW 7316   1.129   3.209   5.381
 1770SOL    HW1 7317   1.165   3.214   5.470
 1770SOL    HW2 7318   1.086   3.121   5.384
 1771SOL     OW 7319   0.229   3.261   4.245
 1771SOL    HW1 7320   0.243   3.357   4.231
 1771SOL    HW2 7321   0.163   3.263   4.316
 1772SOL     OW 7322   0.252   2.982   4.610
 1772SOL    HW1 7323   0.240   2.897   4.656
 1772SOL    HW2 7324   0.198   3.042   4.663
 1773SOL     OW 7325   0.618   3.666   5.131
 1773SOL    HW1 7326   0.542   3.640   5.186
 1773SOL    HW2 7327   0.637   3.756   5.161
 1774SOL     OW 7328   0.578   2.856   3.848
 1774SOL    HW1 7329   0.626   2.908   3.780
 1774SOL    HW2 7330   0.626   2.885   3.929
 1775SOL     OW 7331   1.610   1.977   5.219
 1775SOL    HW1 7332   1.610   2.050   5.155
 1775SOL    HW2 7333   1.619   2.023   5.304
 1776SOL     OW 7334   0.129   2.496   4.278
 1776SOL    HW1 7335   0.092   2.407   4.293
 1776SOL    HW2 7336   0.113   2.541   4.363
 1777SOL     OW 7337   1.844   3.601   4.077
 1777SOL    HW1 7338   1.917   3.581   4.139
 1777SOL    HW2 7339   1.862   3.693   4.055
 1778SOL     OW 7340   0.057   3.458   3.850
 1778SOL    HW1 7341   0.031   3.365   3.859
 1778SOL    HW2 7342   0.013   3.500   3.924
 1779SOL     OW 7343   1.674   2.765   4.390
 1779SOL    HW1 7344   1.768   2.743   4.401
 1779SOL    HW2 7345   1.673   2.817   4.309
 1780SOL     OW 7346   1.638   2.985   4.162
 1780SOL    HW1 7347   1.730   2.981   4.131
 1780SOL    HW2 7348   1.643   3.053   4.232
 1781SOL     OW 7349   0.126   2.594   5.309
 1781SOL    HW1 7350   0.214   2.632   5.323
 1781SOL    HW2 7351   0.070   2.672   5.296
 1782SOL     OW 7352   0.621   3.260   4.485
 1782SOL    HW1 7353   0.584   3.172   4.505
 1782SOL    HW2 7354   0.602   3.265   4.389
 1783SOL     OW 7355   1.278   3.082   5.143
 1783SOL    HW1 7356   1.324   3.021   5.083
 1783SOL    HW2 7357   1.332   3.074   5.224
 1784SOL     OW 7358   0.811   1.860   4.205
 1784SOL    HW1 7359   0.841   1.953   4.213
 1784SOL    HW2 7360   0.714   1.867   4.218
 1785SOL     OW 7361   0.177   2.848   4.968
 1785SOL    HW1 7362   0.260   2.799   4.952
 1785SOL    HW2 7363   0.110   2.785   4.939
 1786SOL     OW 7364   1.544   2.819   3.908
 1786SOL    HW1 7365   1.460   2.782   3.942
 1786SOL    HW2 7366   1.585   2.852   3.990
 1787SOL     OW 7367   1.177   3.662   5.343
 1787SOL    HW1 7368   1.180   3.727   5.272
 1787SOL    HW2 7369   1.200   3.580   5.296
 1788SOL     OW 7370   0.325   2.097   5.527
 1788SOL    HW1 7371   0.382   2.170   5.553
 1788SOL    HW2 7372   0.239   2.122   5.567
 1789SOL     OW 7373   1.466   3.287   4.681
 1789SOL    HW1 7374   1.405   3.306   4.754
 1789SOL    HW2 7375   1.443   3.195   4.657
 1790SOL     OW 7376   1.659   3.597   4.327
 1790SOL    HW1 7377   1.656   3.555   4.240
 1790SOL    HW2 7378   1.626   3.525   4.384
 1791SOL     OW 7379   0.585   2.585   3.981
 1791SOL    HW1 7380   0.605   2.674   3.949
 1791SOL    HW2 7381   0.515   2.601   4.046
 1792SOL     OW 7382   1.249   2.245   4.684
 1792SOL    HW1 7383   1.171   2.186   4.686
 1792SOL    HW2 7384   1.318   2.186   4.723
 1793SOL     OW 7385   1.570   3.507   4.029
 1793SOL    HW1 7386   1.661   3.541   4.033
 1793SOL    HW2 7387   1.560   3.495   3.932
 1794SOL     OW 7388   0.793   2.500   5.188
 1794SOL    HW1 7389   0.773   2.466   5.279
 1794SOL    HW2 7390   0.757   2.428   5.132
 1795SOL     OW 7391   1.396   2.340   5.400
 1795SOL    HW1 7392   1.404   2.399   5.478
 1795SOL    HW2 7393   1.464   2.273   5.418
 1796SOL     OW 7394   0.953   2.747   5.299
 1796SOL    HW1 7395   0.993   2.665   5.265
 1796SOL    HW2 7396   0.908   2.781   5.219
 1797SOL     OW 7397   1.005   2.286   4.898
 1797SOL    HW1 7398   0.927   2.271   4.955
 1797SOL    HW2 7399   1.009   2.204   4.845
 1798SOL     OW 7400   1.049   2.541   4.123
 1798SOL    HW1 7401   1.065   2.564   4.215
 1798SOL    HW2 7402   0.961   2.497   4.125
 1799SOL     OW 7403   0.103   2.667   4.485
 1799SOL    HW1 7404   0.180   2.658   4.543
 1799SOL    HW2 7405   0.055   2.739   4.531
 1800SOL     OW 7406   0.136   3.677   5.292
 1800SOL    HW1 7407   0.136   3.665   5.389
 1800SOL    HW2 7408   0.049   3.714   5.274
 1801SOL     OW 7409   0.887   2.255   3.916
 1801SOL    HW1 7410   0.938   2.309   3.851
 1801SOL    HW2 7411   0.907   2.167   3.885
 1802SOL     OW 7412   1.717   2.459   5.569
 1802SOL    HW1 7413   1.676   2.531   5.518
 1802SOL    HW2 7414   1.755   2.406   5.497
 1803SOL     OW 7415   1.362   3.012   4.284
 1803SOL    HW1 7416   1.443   3.004   4.230
 1803SOL    HW2 7417   1.312   3.078   4.232
 1804SOL     OW 7418   0.589   2.070   4.614
 1804SOL    HW1 7419   0.578   2.075   4.711
 1804SOL    HW2 7420   0.577   2.163   4.588
 1805SOL     OW 7421   0.978   3.302   4.207
 1805SOL    HW1 7422   0.940   3.366   4.142
 1805SOL    HW2 7423   0.995   3.359   4.283
 1806SOL     OW 7424   0.377   3.678   4.558
 1806SOL    HW1 7425   0.393   3.583   4.575
 1806SOL    HW2 7426   0.464   3.715   4.580
 1807SOL     OW 7427   1.798   2.915   4.600
 1807SOL    HW1 7428   1.740   2.910   4.523
 1807SOL    HW2 7429   1.738   2.898   4.674
 1808SOL     OW 7430   1.220   3.422   5.218
 1808SOL    HW1 7431   1.201   3.355   5.286
 1808SOL    HW2 7432   1.179   3.383   5.140
 1809SOL     OW 7433   0.325   2.822   3.973
 1809SOL    HW1 7434   0.410   2.844   3.932
 1809SOL    HW2 7435   0.278   2.778   3.901
 1810SOL     OW 7436   1.464   2.622   4.457
 1810SOL    HW1 7437   1.479   2.578   4.542
 1810SOL    HW2 7438   1.548   2.672   4.444
 1811SOL     OW 7439   0.468   3.121   5.445
 1811SOL    HW1 7440   0.443   3.121   5.350
 1811SOL    HW2 7441   0.387   3.154   5.487
 1812SOL     OW 7442   1.092   3.637   3.961
 1812SOL    HW1 7443   1.023   3.583   4.003
 1812SOL    HW2 7444   1.111   3.588   3.879
 1813SOL     OW 7445   0.176   2.139   5.223
 1813SOL    HW1 7446   0.095   2.184   5.253
 1813SOL    HW2 7447   0.189   2.074   5.293
 1814SOL     OW 7448   1.617   3.224   3.821
 1814SOL    HW1 7449   1.577   3.309   3.795
 1814SOL    HW2 7450   1.558   3.158   3.781
 1815SOL     OW 7451   0.455   3.602   4.037
 1815SOL    HW1 7452   0.501   3.650   4.109
 1815SOL    HW2 7453   0.527   3.572   3.980
 1816SOL     OW 7454   1.399   2.017   4.186
 1816SOL    HW1 7455   1.382   1.959   4.111
 1816SOL    HW2 7456   1.495   2.007   4.197
 1817SOL     OW 7457   0.257   3.652   4.951
 1817SOL    HW1 7458   0.301   3.573   4.987
 1817SOL    HW2 7459   0.233   3.624   4.861
 1818SOL     OW 7460   0.948   3.548   4.618
 1818SOL    HW1 7461   1.036   3.507   4.621
 1818SOL    HW2 7462   0.908   3.504   4.541
 1819SOL     OW 7463   0.404   2.549   4.187
 1819SOL    HW1 7464   0.420   2.456   4.213
 1819SOL    HW2 7465   0.314   2.562   4.222
 1820SOL     OW 7466   1.550   2.119   5.461
 1820SOL    HW1 7467   1.544   2.127   5.559
 1820SOL    HW2 7468   1.500   2.037   5.447
 1821SOL     OW 7469   0.642   2.003   3.811
 1821SOL    HW1 7470   0.702   1.938   3.848
 1821SOL    HW2 7471   0.589   1.948   3.749
 1822SOL     OW 7472   0.775   2.135   5.474
 1822SOL    HW1 7473   0.850   2.073   5.481
 1822SOL    HW2 7474   0.717   2.106   5.547
 1823SOL     OW 7475   0.878   3.395   4.920
 1823SOL    HW1 7476   0.868   3.373   4.825
 1823SOL    HW2 7477   0.939   3.327   4.951
 1824SOL     OW 7478   1.334   2.468   5.158
 1824SOL    HW1 7479   1.369   2.429   5.240
 1824SOL    HW2 7480   1.391   2.546   5.144
 1825SOL     OW 7481   0.841   3.261   4.671
 1825SOL    HW1 7482   0.927   3.246   4.625
 1825SOL    HW2 7483   0.782   3.278   4.596
 1826SOL     OW 7484   0.942   2.387   4.629
 1826SOL    HW1 7485   0.927   2.379   4.532
 1826SOL    HW2 7486   0.951   2.294   4.653
 1827SOL     OW 7487   0.550   1.904   4.221
 1827SOL    HW1 7488   0.469   1.907   4.275
 1827SOL    HW2 7489   0.539   1.982   4.163
 1828SOL     OW 7490   1.447   3.033   3.749
 1828SOL    HW1 7491   1.471   2.959   3.807
 1828SOL    HW2 7492   1.362   3.064   3.786
 1829SOL     OW 7493   0.283   1.904   3.922
 1829SOL    HW1 7494   0.350   1.956   3.877
 1829SOL    HW2 7495   0.337   1.839   3.971
 1830SOL     OW 7496   0.936   2.116   4.216
 1830SOL    HW1 7497   0.924   2.162   4.131
 1830SOL    HW2 7498   1.033   2.119   4.226
 1831SOL     OW 7499   1.078   2.543   5.181
 1831SOL    HW1 7500   1.032   2.460   5.201
 1831SOL    HW2 7501   1.173   2.520   5.183
 1832SOL     OW 7502   1.225   3.442   4.519
 1832SOL    HW1 7503   1.223   3.501   4.442
 1832SOL    HW2 7504   1.306   3.469   4.564
 1833SOL     OW 7505   0.459   3.020   4.450
 1833SOL    HW1 7506   0.384   3.008   4.512
 1833SOL    HW2 7507   0.419   2.992   4.365
 1834SOL     OW 7508   1.255   3.669   4.333
 1834SOL    HW1 7509   1.305   3.736   4.283
 1834SOL    HW2 7510   1.208   3.724   4.398
 1835SOL     OW 7511   1.058   2.402   3.758
 1835SOL    HW1 7512   1.019   2.487   3.733
 1835SOL    HW2 7513   1.139   2.427   3.806
 1836SOL     OW 7514   0.059   2.436   5.103
 1836SOL    HW1 7515   0.150   2.424   5.072
 1836SOL    HW2 7516   0.073   2.500   5.176
 1837SOL     OW 7517   0.573   2.094   4.889
 1837SOL    HW1 7518   0.611   2.011   4.920
 1837SOL    HW2 7519   0.482   2.089   4.923
 1838SOL     OW 7520   0.894   2.337   4.378
 1838SOL    HW1 7521   0.836   2.372   4.309
 1838SOL    HW2 7522   0.907   2.246   4.346
 1839SOL     OW 7523   0.956   1.950   4.507
 1839SOL    HW1 7524   0.949   1.922   4.414
 1839SOL    HW2 7525   0.968   1.864   4.552
 1840SOL     OW 7526   1.418   3.037   4.605
 1840SOL    HW1 7527   1.340   2.983   4.618
 1840SOL    HW2 7528   1.433   3.029   4.509
 1841SOL     OW 7529   1.457   2.441   4.717
 1841SOL    HW1 7530   1.405   2.361   4.726
 1841SOL    HW2 7531   1.520   2.436   4.792
 1842SOL     OW 7532   1.842   2.685   4.112
 1842SOL    HW1 7533   1.892   2.633   4.178
 1842SOL    HW2 7534   1.830   2.619   4.041
 1843SOL     OW 7535   0.497   3.282   3.860
 1843SOL    HW1 7536   0.417   3.262   3.909
 1843SOL    HW2 7537   0.482   3.239   3.776
 1844SOL     OW 7538   1.663   3.145   4.386
 1844SOL    HW1 7539   1.760   3.150   4.389
 1844SOL    HW2 7540   1.635   3.235   4.409
 1845SOL     OW 7541   1.415   2.458   3.787
 1845SOL    HW1 7542   1.369   2.426   3.867
 1845SOL    HW2 7543   1.506   2.430   3.803
 1846SOL     OW 7544   0.527   2.102   4.039
 1846SOL    HW1 7545   0.577   2.065   3.963
 1846SOL    HW2 7546   0.492   2.182   3.999
 1847SOL     OW 7547   1.725   3.096   5.313
 1847SOL    HW1 7548   1.809   3.049   5.300
 1847SOL    HW2 7549   1.755   3.187   5.320
 1848SOL     OW 7550   1.064   3.210   5.046
 1848SOL    HW1 7551   0.989   3.186   5.102
 1848SOL    HW2 7552   1.137   3.163   5.093
 1849SOL     OW 7553   1.607   3.460   5.368
 1849SOL    HW1 7554   1.611   3.501   5.281
 1849SOL    HW2 7555   1.691   3.410   5.370
 1850SOL     OW 7556   1.103   3.081   4.805
 1850SOL    HW1 7557   1.064   3.124   4.883
 1850SOL    HW2 7558   1.081   3.141   4.733
 1851SOL     OW 7559   1.594   2.942   4.795
 1851SOL    HW1 7560   1.602   3.008   4.868
 1851SOL    HW2 7561   1.545   2.995   4.729
 1852SOL     OW 7562   0.920   1.983   5.114
 1852SOL    HW1 7563   0.955   1.943   5.031
 1852SOL    HW2 7564   1.003   2.007   5.160
 1853SOL     OW 7565   0.997   2.972   5.455
 1853SOL    HW1 7566   0.904   2.992   5.474
 1853SOL    HW2 7567   0.991   2.895   5.396
 1854SOL     OW 7568   0.724   2.918   4.091
 1854SOL    HW1 7569   0.714   2.896   4.186
 1854SOL    HW2 7570   0.806   2.870   4.067
 1855SOL     OW 7571   0.393   2.675   4.972
 1855SOL    HW1 7572   0.461   2.684   5.041
 1855SOL    HW2 7573   0.371   2.580   4.978
 1856SOL     OW 7574   1.287   2.246   4.994
 1856SOL    HW1 7575   1.306   2.325   5.048
 1856SOL    HW2 7576   1.198   2.264   4.959
 1857SOL     OW 7577   0.035   3.434   5.096
 1857SOL    HW1 7578   0.013   3.513   5.046
 1857SOL    HW2 7579   0.131   3.443   5.108
 1858SOL     OW 7580   0.359   2.959   4.212
 1858SOL    HW1 7581   0.377   3.035   4.156
 1858SOL    HW2 7582   0.338   2.889   4.147
 1859SOL     OW 7583   0.559   2.401   4.570
 1859SOL    HW1 7584   0.583   2.465   4.500
 1859SOL    HW2 7585   0.599   2.440   4.649
 1860SOL     OW 7586   1.218   3.197   4.115
 1860SOL    HW1 7587   1.265   3.275   4.150
 1860SOL    HW2 7588   1.127   3.215   4.144
 1861SOL     OW 7589   1.301   3.336   4.892
 1861SOL    HW1 7590   1.368   3.332   4.963
 1861SOL    HW2 7591   1.233   3.276   4.925
 1862SOL     OW 7592   1.588   2.489   4.192
 1862SOL    HW1 7593   1.547   2.549   4.256
 1862SOL    HW2 7594   1.628   2.552   4.131
 1863SOL     OW 7595   0.323   3.379   5.043
 1863SOL    HW1 7596   0.312   3.335   4.956
 1863SOL    HW2 7597   0.418   3.397   5.041
 1864SOL     OW 7598   0.424   2.599   5.332
 1864SOL    HW1 7599   0.490   2.636   5.270
 1864SOL    HW2 7600   0.448   2.506   5.332
 1865SOL     OW 7601   1.614   2.643   5.407
 1865SOL    HW1 7602   1.527   2.685   5.397
 1865SOL    HW2 7603   1.666   2.687   5.336
 1866SOL     OW 7604   0.989   1.966   5.483
 1866SOL    HW1 7605   1.058   2.033   5.477
 1866SOL    HW2 7606   1.033   1.891   5.438
 1867SOL     OW 7607   0.483   1.883   5.487
 1867SOL    HW1 7608   0.447   1.825   5.417
 1867SOL    HW2 7609   0.419   1.958   5.485
 1868SOL     OW 7610   0.590   2.732   4.759
 1868SOL    HW1 7611   0.601   2.828   4.757
 1868SOL    HW2 7612   0.534   2.719   4.838
 1869SOL     OW 7613   1.295   2.690   4.749
 1869SOL    HW1 7614   1.282   2.689   4.654
 1869SOL    HW2 7615   1.375   2.636   4.760
 1870SOL     OW 7616   1.238   2.383   3.989
 1870SOL    HW1 7617   1.238   2.310   4.053
 1870SOL    HW2 7618   1.171   2.441   4.029
 1871SOL     OW 7619   0.306   2.064   4.963
 1871SOL    HW1 7620   0.238   2.088   5.029
 1871SOL    HW2 7621   0.297   1.967   4.962
 1872SOL     OW 7622   0.066   3.177   5.000
 1872SOL    HW1 7623   0.115   3.131   5.070
 1872SOL    HW2 7624   0.050   3.265   5.038
 1873SOL     OW 7625   0.743   2.509   4.781
 1873SOL    HW1 7626   0.795   2.480   4.704
 1873SOL    HW2 7627   0.701   2.593   4.755
 1874SOL     OW 7628   1.755   2.802   5.603
 1874SOL    HW1 7629   1.713   2.761   5.526
 1874SOL    HW2 7630   1.683   2.799   5.668
 1875SOL     OW 7631   0.300   1.911   4.333
 1875SOL    HW1 7632   0.277   2.003   4.357
 1875SOL    HW2 7633   0.319   1.872   4.421
 1876SOL     OW 7634   1.585   2.240   4.078
 1876SOL    HW1 7635   1.621   2.170   4.136
 1876SOL    HW2 7636   1.585   2.319   4.135
 1877SOL     OW 7637   0.980   3.428   5.424
 1877SOL    HW1 7638   0.964   3.484   5.345
 1877SOL    HW2 7639   1.013   3.346   5.384
 1878SOL     OW 7640   1.848   3.356   5.329
 1878SOL    HW1 7641   1.875   3.374   5.237
 1878SOL    HW2 7642   1.927   3.382   5.378
 1879SOL     OW 7643   0.349   2.751   5.543
 1879SOL    HW1 7644   0.433   2.773   5.585
 1879SOL    HW2 7645   0.377   2.685   5.476
 1880SOL     OW 7646   1.517   2.123   3.852
 1880SOL    HW1 7647   1.440   2.071   3.880
 1880SOL    HW2 7648   1.545   2.168   3.935
 1881SOL     OW 7649   1.291   2.693   3.749
 1881SOL    HW1 7650   1.348   2.615   3.765
 1881SOL    HW2 7651   1.323   2.719   3.660
 1882SOL     OW 7652   1.072   3.222   4.563
 1882SOL    HW1 7653   1.088   3.146   4.503
 1882SOL    HW2 7654   1.142   3.285   4.540
 1883SOL     OW 7655   0.290   2.686   4.690
 1883SOL    HW1 7656   0.384   2.696   4.668
 1883SOL    HW2 7657   0.290   2.603   4.739
 1884SOL     OW 7658   0.337   2.406   4.724
 1884SOL    HW1 7659   0.294   2.319   4.712
 1884SOL    HW2 7660   0.408   2.403   4.657
 1885SOL     OW 7661   1.152   2.226   5.425
 1885SOL    HW1 7662   1.107   2.278   5.495
 1885SOL    HW2 7663   1.241   2.267   5.425
 1886SOL     OW 7664   1.159   2.066   5.207
 1886SOL    HW1 7665   1.165   2.125   5.285
 1886SOL    HW2 7666   1.219   2.108   5.144
 1887SOL     OW 7667  11.085   3.195   3.908
 1887SOL    HW1 7668  10.995   3.202   3.874
 1887SOL    HW2 7669  11.081   3.111   3.958
 1888SOL     OW 7670   0.144   3.653   4.682
 1888SOL    HW1 7671   0.104   3.595   4.614
 1888SOL    HW2 7672   0.227   3.679   4.637
 1889SOL     OW 7673   0.491   3.444   4.637
 1889SOL    HW1 7674   0.564   3.508   4.652
 1889SOL    HW2 7675   0.534   3.375   4.583
 1890SOL     OW 7676   0.967   2.630   4.947
 1890SOL    HW1 7677   1.008   2.605   5.033
 1890SOL    HW2 7678   0.876   2.647   4.973
 1891SOL     OW 7679  11.090   2.461   4.824
 1891SOL    HW1 7680   0.059   2.414   4.780
 1891SOL    HW2 7681   0.002   2.435   4.916
 1892SOL     OW 7682   0.205   2.385   5.466
 1892SOL    HW1 7683   0.257   2.333   5.403
 1892SOL    HW2 7684   0.170   2.455   5.408
 1893SOL     OW 7685   1.368   2.776   5.368
 1893SOL    HW1 7686   1.394   2.869   5.367
 1893SOL    HW2 7687   1.373   2.753   5.274
 1894SOL     OW 7688   0.801   2.434   4.105
 1894SOL    HW1 7689   0.818   2.372   4.031
 1894SOL    HW2 7690   0.722   2.482   4.073
 1895SOL     OW 7691   1.629   2.473   4.924
 1895SOL    HW1 7692   1.620   2.418   5.003
 1895SOL    HW2 7693   1.716   2.443   4.890
 1896SOL     OW 7694   0.264   3.399   5.446
 1896SOL    HW1 7695   0.233   3.473   5.501
 1896SOL    HW2 7696   0.243   3.322   5.502
 1897SOL     OW 7697   0.694   2.335   4.998
 1897SOL    HW1 7698   0.652   2.255   4.963
 1897SOL    HW2 7699   0.697   2.394   4.921
 1898SOL     OW 7700   0.908   3.555   5.192
 1898SOL    HW1 7701   0.895   3.523   5.102
 1898SOL    HW2 7702   0.912   3.652   5.181
 1899SOL     OW 7703   0.427   2.367   3.912
 1899SOL    HW1 7704   0.504   2.422   3.887
 1899SOL    HW2 7705   0.428   2.377   4.008
 1900SOL     OW 7706   0.170   2.988   5.209
 1900SOL    HW1 7707   0.174   2.929   5.286
 1900SOL    HW2 7708   0.175   2.927   5.132
 1901SOL     OW 7709   1.311   2.891   4.945
 1901SOL    HW1 7710   1.316   2.828   4.871
 1901SOL    HW2 7711   1.247   2.956   4.911
 1902SOL     OW 7712   1.310   2.720   4.016
 1902SOL    HW1 7713   1.228   2.689   4.056
 1902SOL    HW2 7714   1.291   2.714   3.920
 1903SOL     OW 7715   1.758   3.610   4.853
 1903SOL    HW1 7716   1.834   3.627   4.793
 1903SOL    HW2 7717   1.744   3.514   4.839
 1904SOL     OW 7718   1.242   3.596   4.838
 1904SOL    HW1 7719   1.326   3.622   4.797
 1904SOL    HW2 7720   1.255   3.499   4.851
 1905SOL     OW 7721   0.090   3.153   4.734
 1905SOL    HW1 7722   0.088   3.171   4.831
 1905SOL    HW2 7723   0.010   3.101   4.725
 1906SOL     OW 7724   0.678   3.503   5.464
 1906SOL    HW1 7725   0.623   3.580   5.445
 1906SOL    HW2 7726   0.756   3.520   5.411
 1907SOL     OW 7727   1.679   1.997   4.222
 1907SOL    HW1 7728   1.755   1.982   4.164
 1907SOL    HW2 7729   1.677   1.915   4.276
 1908SOL     OW 7730   1.352   3.431   4.199
 1908SOL    HW1 7731   1.421   3.442   4.132
 1908SOL    HW2 7732   1.325   3.522   4.217
 1909SOL     OW 7733   0.168   3.647   5.563
 1909SOL    HW1 7734   0.115   3.582   5.614
 1909SOL    HW2 7735   0.214   3.695   5.634
 1910SOL     OW 7736   1.254   2.778   4.375
 1910SOL    HW1 7737   1.336   2.729   4.394
 1910SOL    HW2 7738   1.289   2.859   4.334
 1911SOL     OW 7739   0.807   3.113   5.162
 1911SOL    HW1 7740   0.780   3.166   5.240
 1911SOL    HW2 7741   0.734   3.132   5.102
 1912SOL     OW 7742   0.677   3.483   3.880
 1912SOL    HW1 7743   0.681   3.494   3.783
 1912SOL    HW2 7744   0.623   3.401   3.885
 1913SOL     OW 7745   1.614   3.572   5.117
 1913SOL    HW1 7746   1.662   3.595   5.036
 1913SOL    HW2 7747   1.593   3.659   5.155
 1914SOL     OW 7748   1.831   2.027   4.703
 1914SOL    HW1 7749   1.854   1.940   4.666
 1914SOL    HW2 7750   1.745   2.046   4.660
 1915SOL     OW 7751   0.261   2.166   4.425
 1915SOL    HW1 7752   0.166   2.187   4.419
 1915SOL    HW2 7753   0.275   2.165   4.521
 1916SOL     OW 7754   1.170   3.487   3.747
 1916SOL    HW1 7755   1.186   3.391   3.756
 1916SOL    HW2 7756   1.113   3.491   3.668
 1917SOL     OW 7757   0.827   2.858   5.090
 1917SOL    HW1 7758   0.853   2.886   5.003
 1917SOL    HW2 7759   0.826   2.943   5.139
 1918SOL     OW 7760   0.933   2.782   4.008
 1918SOL    HW1 7761   1.001   2.820   3.948
 1918SOL    HW2 7762   0.967   2.694   4.029
 1919SOL     OW 7763   1.531   3.473   3.760
 1919SOL    HW1 7764   1.436   3.492   3.754
 1919SOL    HW2 7765   1.557   3.478   3.665
 1920SOL     OW 7766   0.391   3.133   5.189
 1920SOL    HW1 7767   0.361   3.216   5.149
 1920SOL    HW2 7768   0.312   3.077   5.186
 1921SOL     OW 7769   1.602   3.145   4.967
 1921SOL    HW1 7770   1.689   3.145   5.011
 1921SOL    HW2 7771   1.552   3.211   5.018
 1922SOL     OW 7772   1.057   2.967   4.438
 1922SOL    HW1 7773   0.988   2.918   4.485
 1922SOL    HW2 7774   1.117   2.898   4.407
 1923SOL     OW 7775   1.032   2.087   4.718
 1923SOL    HW1 7776   1.002   2.049   4.632
 1923SOL    HW2 7777   1.034   2.006   4.773
 1924SOL     OW 7778   0.593   3.308   4.209
 1924SOL    HW1 7779   0.660   3.286   4.142
 1924SOL    HW2 7780   0.530   3.362   4.161
 1925SOL     OW 7781   1.703   2.243   5.104
 1925SOL    HW1 7782   1.769   2.315   5.105
 1925SOL    HW2 7783   1.750   2.175   5.051
 1926SOL     OW 7784   0.240   3.210   3.986
 1926SOL    HW1 7785   0.145   3.228   3.972
 1926SOL    HW2 7786   0.247   3.224   4.083
 1927SOL     OW 7787   0.126   2.872   5.472
 1927SOL    HW1 7788   0.057   2.826   5.521
 1927SOL    HW2 7789   0.207   2.826   5.504
 1928SOL     OW 7790   0.679   2.059   5.216
 1928SOL    HW1 7791   0.768   2.036   5.179
 1928SOL    HW2 7792   0.701   2.096   5.303
 1929SOL     OW 7793   0.089   2.210   3.776
 1929SOL    HW1 7794  11.101   2.175   3.787
 1929SOL    HW2 7795   0.085   2.244   3.684
 1930SOL     OW 7796   1.447   2.729   5.113
 1930SOL    HW1 7797   1.400   2.793   5.057
 1930SOL    HW2 7798   1.539   2.752   5.095
 1931SOL     OW 7799   0.062   2.038   4.033
 1931SOL    HW1 7800   0.073   2.114   3.975
 1931SOL    HW2 7801   0.136   1.980   4.009
 1932SOL     OW 7802   1.214   3.192   3.837
 1932SOL    HW1 7803   1.125   3.155   3.842
 1932SOL    HW2 7804   1.234   3.205   3.931
 1933SOL     OW 7805   0.612   2.683   5.136
 1933SOL    HW1 7806   0.667   2.763   5.136
 1933SOL    HW2 7807   0.681   2.616   5.153
 1934SOL     OW 7808   1.512   3.638   4.683
 1934SOL    HW1 7809   1.546   3.688   4.608
 1934SOL    HW2 7810   1.592   3.620   4.734
 1935SOL     OW 7811   0.729   2.404   5.424
 1935SOL    HW1 7812   0.768   2.469   5.486
 1935SOL    HW2 7813   0.750   2.318   5.464
 1936SOL     OW 7814   1.459   3.042   5.347
 1936SOL    HW1 7815   1.460   3.050   5.445
 1936SOL    HW2 7816   1.553   3.058   5.325
 1937SOL     OW 7817   0.389   3.593   5.286
 1937SOL    HW1 7818   0.303   3.638   5.271
 1937SOL    HW2 7819   0.358   3.509   5.324
 1938SOL     OW 7820   1.701   2.744   4.964
 1938SOL    HW1 7821   1.686   2.658   4.923
 1938SOL    HW2 7822   1.666   2.808   4.899
 1939SOL     OW 7823   1.207   2.203   4.202
 1939SOL    HW1 7824   1.274   2.132   4.195
 1939SOL    HW2 7825   1.241   2.255   4.278
 1940SOL     OW 7826   0.610   2.601   4.372
 1940SOL    HW1 7827   0.633   2.695   4.367
 1940SOL    HW2 7828   0.538   2.596   4.306
 1941SOL     OW 7829   1.769   2.242   5.367
 1941SOL    HW1 7830   1.738   2.257   5.276
 1941SOL    HW2 7831   1.695   2.193   5.405
 1942SOL     OW 7832   1.753   2.786   5.228
 1942SOL    HW1 7833   1.812   2.862   5.230
 1942SOL    HW2 7834   1.756   2.762   5.134
 1943SOL     OW 7835   0.851   3.222   3.765
 1943SOL    HW1 7836   0.828   3.229   3.859
 1943SOL    HW2 7837   0.878   3.311   3.739
 1944SOL     OW 7838   0.655   3.669   4.629
 1944SOL    HW1 7839   0.652   3.766   4.622
 1944SOL    HW2 7840   0.749   3.649   4.634
 1945SOL     OW 7841   0.865   2.822   4.574
 1945SOL    HW1 7842   0.877   2.750   4.636
 1945SOL    HW2 7843   0.825   2.891   4.630
 1946SOL     OW 7844   1.094   2.864   3.813
 1946SOL    HW1 7845   1.066   2.917   3.737
 1946SOL    HW2 7846   1.159   2.804   3.774
 1947SOL     OW 7847   1.867   3.412   4.557
 1947SOL    HW1 7848   1.773   3.397   4.565
 1947SOL    HW2 7849   1.903   3.349   4.621
 1948SOL     OW 7850   0.219   3.163   5.572
 1948SOL    HW1 7851   0.184   3.076   5.549
 1948SOL    HW2 7852   0.222   3.160   5.669
 1949SOL     OW 7853   0.083   3.076   4.387
 1949SOL    HW1 7854   0.142   3.056   4.461
 1949SOL    HW2 7855   0.144   3.075   4.313
 1950SOL     OW 7856   0.671   3.261   5.342
 1950SOL    HW1 7857   0.596   3.206   5.369
 1950SOL    HW2 7858   0.658   3.343   5.393
 1951SOL     OW 7859   1.819   2.032   4.969
 1951SOL    HW1 7860   1.833   1.936   4.974
 1951SOL    HW2 7861   1.825   2.046   4.872
 1952SOL     OW 7862   0.423   2.284   4.236
 1952SOL    HW1 7863   0.478   2.210   4.208
 1952SOL    HW2 7864   0.366   2.243   4.305
 1953SOL     OW 7865   1.711   3.357   4.809
 1953SOL    HW1 7866   1.627   3.320   4.776
 1953SOL    HW2 7867   1.733   3.293   4.878
 1954SOL     OW 7868   0.328   2.407   4.996
 1954SOL    HW1 7869   0.381   2.342   5.043
 1954SOL    HW2 7870   0.332   2.377   4.903
 1955SOL     OW 7871   0.823   3.461   4.401
 1955SOL    HW1 7872   0.806   3.518   4.324
 1955SOL    HW2 7873   0.744   3.404   4.405
 1956SOL     OW 7874   1.430   2.102   4.812
 1956SOL    HW1 7875   1.461   2.013   4.837
 1956SOL    HW2 7876   1.393   2.135   4.896
 1957SOL     OW 7877   1.016   1.863   4.882
 1957SOL    HW1 7878   0.967   1.793   4.838
 1957SOL    HW2 7879   1.106   1.822   4.884
 1958SOL     OW 7880   0.789   3.195   4.038
 1958SOL    HW1 7881   0.764   3.101   4.048
 1958SOL    HW2 7882   0.860   3.202   4.104
 1959SOL     OW 7883   0.595   3.418   4.998
 1959SOL    HW1 7884   0.600   3.504   5.043
 1959SOL    HW2 7885   0.688   3.408   4.973
 1960SOL     OW 7886   1.314   1.915   3.883
 1960SOL    HW1 7887   1.325   1.837   3.828
 1960SOL    HW2 7888   1.228   1.895   3.926
 1961SOL     OW 7889   1.286   2.345   4.424
 1961SOL    HW1 7890   1.242   2.430   4.438
 1961SOL    HW2 7891   1.272   2.302   4.510
 1962SOL     OW 7892   1.603   2.067   4.581
 1962SOL    HW1 7893   1.528   2.070   4.643
 1962SOL    HW2 7894   1.594   2.149   4.530
 1963SOL     OW 7895   0.024   2.944   4.028
 1963SOL    HW1 7896   0.118   2.960   4.015
 1963SOL    HW2 7897   0.025   2.847   4.042
 1964SOL     OW 7898   0.886   3.503   4.051
 1964SOL    HW1 7899   0.813   3.487   3.988
 1964SOL    HW2 7900   0.859   3.585   4.097
 1965SOL     OW 7901   0.242   2.507   5.721
 1965SOL    HW1 7902   0.154   2.489   5.760
 1965SOL    HW2 7903   0.236   2.468   5.632
 1966SOL     OW 7904   0.233   2.153   6.588
 1966SOL    HW1 7905   0.272   2.124   6.673
 1966SOL    HW2 7906   0.156   2.094   6.585
 1967SOL     OW 7907  11.088   2.239   6.231
 1967SOL    HW1 7908  11.005   2.272   6.269
 1967SOL    HW2 7909  11.064   2.147   6.205
 1968SOL     OW 7910   0.566   3.157   6.774
 1968SOL    HW1 7911   0.481   3.158   6.728
 1968SOL    HW2 7912   0.572   3.249   6.806
 1969SOL     OW 7913   1.541   3.387   6.289
 1969SOL    HW1 7914   1.502   3.369   6.377
 1969SOL    HW2 7915   1.465   3.389   6.228
 1970SOL     OW 7916   1.135   2.543   6.297
 1970SOL    HW1 7917   1.166   2.632   6.273
 1970SOL    HW2 7918   1.092   2.559   6.382
 1971SOL     OW 7919   1.772   2.468   5.829
 1971SOL    HW1 7920   1.755   2.468   5.733
 1971SOL    HW2 7921   1.719   2.392   5.858
 1972SOL     OW 7922   0.733   3.019   6.611
 1972SOL    HW1 7923   0.675   3.065   6.675
 1972SOL    HW2 7924   0.775   3.095   6.568
 1973SOL     OW 7925   0.836   2.647   7.398
 1973SOL    HW1 7926   0.845   2.716   7.465
 1973SOL    HW2 7927   0.860   2.692   7.314
 1974SOL     OW 7928   0.690   2.873   6.226
 1974SOL    HW1 7929   0.752   2.864   6.300
 1974SOL    HW2 7930   0.616   2.922   6.266
 1975SOL     OW 7931   0.699   3.018   7.397
 1975SOL    HW1 7932   0.749   3.101   7.412
 1975SOL    HW2 7933   0.612   3.051   7.366
 1976SOL     OW 7934   0.324   3.296   6.660
 1976SOL    HW1 7935   0.249   3.257   6.611
 1976SOL    HW2 7936   0.367   3.350   6.591
 1977SOL     OW 7937   1.474   3.361   6.959
 1977SOL    HW1 7938   1.531   3.440   6.970
 1977SOL    HW2 7939   1.408   3.375   7.029
 1978SOL     OW 7940   0.456   2.253   7.114
 1978SOL    HW1 7941   0.527   2.192   7.089
 1978SOL    HW2 7942   0.375   2.202   7.096
 1979SOL     OW 7943   1.622   2.317   6.329
 1979SOL    HW1 7944   1.550   2.344   6.270
 1979SOL    HW2 7945   1.588   2.351   6.414
 1980SOL     OW 7946   0.218   3.537   6.055
 1980SOL    HW1 7947   0.223   3.614   6.114
 1980SOL    HW2 7948   0.280   3.563   5.985
 1981SOL     OW 7949   1.121   3.211   7.244
 1981SOL    HW1 7950   1.170   3.210   7.328
 1981SOL    HW2 7951   1.078   3.123   7.248
 1982SOL     OW 7952   0.222   3.266   6.099
 1982SOL    HW1 7953   0.220   3.363   6.091
 1982SOL    HW2 7954   0.161   3.251   6.173
 1983SOL     OW 7955   0.252   2.978   6.472
 1983SOL    HW1 7956   0.244   2.898   6.526
 1983SOL    HW2 7957   0.197   3.042   6.522
 1984SOL     OW 7958   0.617   3.668   6.998
 1984SOL    HW1 7959   0.540   3.641   7.051
 1984SOL    HW2 7960   0.637   3.757   7.032
 1985SOL     OW 7961   0.582   2.852   5.706
 1985SOL    HW1 7962   0.629   2.902   5.637
 1985SOL    HW2 7963   0.625   2.885   5.787
 1986SOL     OW 7964   1.606   1.972   7.069
 1986SOL    HW1 7965   1.623   2.033   6.996
 1986SOL    HW2 7966   1.591   2.033   7.142
 1987SOL     OW 7967   0.127   2.504   6.141
 1987SOL    HW1 7968   0.110   2.409   6.155
 1987SOL    HW2 7969   0.106   2.543   6.228
 1988SOL     OW 7970   1.844   3.611   5.926
 1988SOL    HW1 7971   1.876   3.602   6.017
 1988SOL    HW2 7972   1.870   3.702   5.904
 1989SOL     OW 7973   0.058   3.456   5.710
 1989SOL    HW1 7974   0.028   3.366   5.730
 1989SOL    HW2 7975   0.034   3.505   5.789
 1990SOL     OW 7976   1.707   2.759   6.213
 1990SOL    HW1 7977   1.776   2.748   6.146
 1990SOL    HW2 7978   1.649   2.822   6.169
 1991SOL     OW 7979   1.637   2.979   6.029
 1991SOL    HW1 7980   1.726   2.983   5.991
 1991SOL    HW2 7981   1.644   3.048   6.099
 1992SOL     OW 7982   0.134   2.662   7.151
 1992SOL    HW1 7983   0.226   2.629   7.149
 1992SOL    HW2 7984   0.131   2.702   7.240
 1993SOL     OW 7985   0.620   3.255   6.341
 1993SOL    HW1 7986   0.578   3.169   6.360
 1993SOL    HW2 7987   0.602   3.261   6.246
 1994SOL     OW 7988   1.282   3.082   7.005
 1994SOL    HW1 7989   1.315   3.011   6.948
 1994SOL    HW2 7990   1.335   3.070   7.086
 1995SOL     OW 7991   0.826   1.846   6.094
 1995SOL    HW1 7992   0.853   1.939   6.083
 1995SOL    HW2 7993   0.730   1.855   6.105
 1996SOL     OW 7994   0.172   2.830   6.830
 1996SOL    HW1 7995   0.269   2.823   6.824
 1996SOL    HW2 7996   0.148   2.742   6.800
 1997SOL     OW 7997   1.540   2.806   5.778
 1997SOL    HW1 7998   1.455   2.764   5.801
 1997SOL    HW2 7999   1.560   2.854   5.860
 1998SOL     OW 8000   1.171   3.661   7.193
 1998SOL    HW1 8001   1.175   3.723   7.119
 1998SOL    HW2 8002   1.200   3.578   7.152
 1999SOL     OW 8003   0.326   2.069   7.451
 1999SOL    HW1 8004   0.372   2.152   7.438
 1999SOL    HW2 8005   0.232   2.095   7.450
 2000SOL     OW 8006   1.471   3.290   6.545
 2000SOL    HW1 8007   1.408   3.308   6.617
 2000SOL    HW2 8008   1.442   3.201   6.516
 2001SOL     OW 8009   1.675   3.588   6.187
 2001SOL    HW1 8010   1.645   3.557   6.100
 2001SOL    HW2 8011   1.636   3.519   6.244
 2002SOL     OW 8012   0.589   2.582   5.844
 2002SOL    HW1 8013   0.597   2.674   5.815
 2002SOL    HW2 8014   0.520   2.587   5.913
 2003SOL     OW 8015   1.272   2.191   6.493
 2003SOL    HW1 8016   1.181   2.167   6.520
 2003SOL    HW2 8017   1.325   2.155   6.567
 2004SOL     OW 8018   1.568   3.514   5.895
 2004SOL    HW1 8019   1.661   3.540   5.893
 2004SOL    HW2 8020   1.553   3.495   5.801
 2005SOL     OW 8021   0.792   2.494   7.041
 2005SOL    HW1 8022   0.777   2.457   7.132
 2005SOL    HW2 8023   0.756   2.422   6.986
 2006SOL     OW 8024   1.395   2.343   7.253
 2006SOL    HW1 8025   1.397   2.404   7.330
 2006SOL    HW2 8026   1.456   2.272   7.282
 2007SOL     OW 8027   0.943   2.749   7.166
 2007SOL    HW1 8028   0.983   2.668   7.129
 2007SOL    HW2 8029   0.895   2.783   7.087
 2008SOL     OW 8030   0.980   2.262   6.812
 2008SOL    HW1 8031   0.892   2.284   6.846
 2008SOL    HW2 8032   0.960   2.209   6.734
 2009SOL     OW 8033   1.050   2.540   5.994
 2009SOL    HW1 8034   1.063   2.561   6.088
 2009SOL    HW2 8035   0.961   2.498   5.995
 2010SOL     OW 8036   0.089   2.662   6.357
 2010SOL    HW1 8037   0.171   2.653   6.408
 2010SOL    HW2 8038   0.048   2.738   6.402
 2011SOL     OW 8039   0.131   3.661   7.153
 2011SOL    HW1 8040   0.136   3.657   7.251
 2011SOL    HW2 8041   0.056   3.718   7.136
 2012SOL     OW 8042   0.882   2.247   5.797
 2012SOL    HW1 8043   0.929   2.301   5.731
 2012SOL    HW2 8044   0.893   2.159   5.760
 2013SOL     OW 8045   1.726   2.444   7.426
 2013SOL    HW1 8046   1.684   2.521   7.382
 2013SOL    HW2 8047   1.751   2.390   7.349
 2014SOL     OW 8048   1.362   3.007   6.151
 2014SOL    HW1 8049   1.441   3.002   6.096
 2014SOL    HW2 8050   1.309   3.071   6.101
 2015SOL     OW 8051   0.593   2.071   6.475
 2015SOL    HW1 8052   0.586   2.081   6.572
 2015SOL    HW2 8053   0.577   2.161   6.443
 2016SOL     OW 8054   0.983   3.302   6.085
 2016SOL    HW1 8055   0.950   3.367   6.022
 2016SOL    HW2 8056   0.985   3.353   6.167
 2017SOL     OW 8057   0.373   3.681   6.428
 2017SOL    HW1 8058   0.405   3.591   6.447
 2017SOL    HW2 8059   0.454   3.733   6.440
 2018SOL     OW 8060   1.820   2.904   6.459
 2018SOL    HW1 8061   1.761   2.905   6.382
 2018SOL    HW2 8062   1.758   2.889   6.533
 2019SOL     OW 8063   1.223   3.413   7.085
 2019SOL    HW1 8064   1.197   3.345   7.149
 2019SOL    HW2 8065   1.174   3.384   7.007
 2020SOL     OW 8066   0.318   2.819   5.841
 2020SOL    HW1 8067   0.392   2.840   5.782
 2020SOL    HW2 8068   0.290   2.731   5.810
 2021SOL     OW 8069   1.481   2.614   6.294
 2021SOL    HW1 8070   1.473   2.590   6.388
 2021SOL    HW2 8071   1.563   2.665   6.293
 2022SOL     OW 8072   0.465   3.122   7.312
 2022SOL    HW1 8073   0.440   3.125   7.217
 2022SOL    HW2 8074   0.382   3.152   7.354
 2023SOL     OW 8075   1.101   3.643   5.827
 2023SOL    HW1 8076   1.033   3.588   5.869
 2023SOL    HW2 8077   1.119   3.594   5.745
 2024SOL     OW 8078   1.619   3.218   5.683
 2024SOL    HW1 8079   1.578   3.302   5.656
 2024SOL    HW2 8080   1.559   3.151   5.644
 2025SOL     OW 8081   0.449   3.604   5.910
 2025SOL    HW1 8082   0.497   3.654   5.978
 2025SOL    HW2 8083   0.519   3.574   5.851
 2026SOL     OW 8084   1.399   2.001   6.048
 2026SOL    HW1 8085   1.388   1.958   5.961
 2026SOL    HW2 8086   1.495   1.998   6.060
 2027SOL     OW 8087   0.243   3.657   6.810
 2027SOL    HW1 8088   0.298   3.585   6.845
 2027SOL    HW2 8089   0.229   3.632   6.717
 2028SOL     OW 8090   0.950   3.555   6.480
 2028SOL    HW1 8091   1.036   3.511   6.479
 2028SOL    HW2 8092   0.906   3.514   6.403
 2029SOL     OW 8093   0.411   2.556   6.045
 2029SOL    HW1 8094   0.430   2.462   6.062
 2029SOL    HW2 8095   0.320   2.562   6.077
 2030SOL     OW 8096   1.544   2.118   7.315
 2030SOL    HW1 8097   1.543   2.128   7.413
 2030SOL    HW2 8098   1.492   2.037   7.306
 2031SOL     OW 8099   0.635   1.997   5.679
 2031SOL    HW1 8100   0.704   1.936   5.703
 2031SOL    HW2 8101   0.583   1.946   5.614
 2032SOL     OW 8102   0.770   2.121   7.336
 2032SOL    HW1 8103   0.847   2.062   7.347
 2032SOL    HW2 8104   0.714   2.097   7.412
 2033SOL     OW 8105   0.870   3.399   6.785
 2033SOL    HW1 8106   0.860   3.377   6.690
 2033SOL    HW2 8107   0.925   3.326   6.817
 2034SOL     OW 8108   1.329   2.465   7.019
 2034SOL    HW1 8109   1.365   2.430   7.102
 2034SOL    HW2 8110   1.383   2.545   7.003
 2035SOL     OW 8111   0.822   3.267   6.531
 2035SOL    HW1 8112   0.907   3.260   6.485
 2035SOL    HW2 8113   0.758   3.264   6.457
 2036SOL     OW 8114   0.947   2.387   6.501
 2036SOL    HW1 8115   0.920   2.375   6.407
 2036SOL    HW2 8116   0.975   2.296   6.523
 2037SOL     OW 8117   0.560   1.906   6.087
 2037SOL    HW1 8118   0.479   1.910   6.140
 2037SOL    HW2 8119   0.551   1.987   6.032
 2038SOL     OW 8120   1.442   3.034   5.612
 2038SOL    HW1 8121   1.462   2.955   5.664
 2038SOL    HW2 8122   1.354   3.059   5.641
 2039SOL     OW 8123   0.286   1.901   5.789
 2039SOL    HW1 8124   0.346   1.968   5.755
 2039SOL    HW2 8125   0.347   1.841   5.837
 2040SOL     OW 8126   0.926   2.114   6.073
 2040SOL    HW1 8127   0.909   2.166   5.993
 2040SOL    HW2 8128   1.022   2.124   6.083
 2041SOL     OW 8129   1.073   2.542   7.049
 2041SOL    HW1 8130   1.025   2.459   7.053
 2041SOL    HW2 8131   1.167   2.515   7.047
 2042SOL     OW 8132   1.229   3.448   6.373
 2042SOL    HW1 8133   1.231   3.505   6.295
 2042SOL    HW2 8134   1.304   3.480   6.424
 2043SOL     OW 8135   0.462   3.029   6.315
 2043SOL    HW1 8136   0.385   3.008   6.372
 2043SOL    HW2 8137   0.426   3.006   6.226
 2044SOL     OW 8138   1.255   3.671   6.183
 2044SOL    HW1 8139   1.304   3.739   6.131
 2044SOL    HW2 8140   1.206   3.726   6.246
 2045SOL     OW 8141   1.054   2.395   5.622
 2045SOL    HW1 8142   1.011   2.478   5.597
 2045SOL    HW2 8143   1.126   2.422   5.681
 2046SOL     OW 8144   0.075   2.476   6.951
 2046SOL    HW1 8145   0.157   2.424   6.946
 2046SOL    HW2 8146   0.085   2.525   7.034
 2047SOL     OW 8147   0.582   2.095   6.751
 2047SOL    HW1 8148   0.623   2.033   6.813
 2047SOL    HW2 8149   0.488   2.086   6.776
 2048SOL     OW 8150   0.876   2.320   6.255
 2048SOL    HW1 8151   0.832   2.371   6.186
 2048SOL    HW2 8152   0.891   2.235   6.211
 2049SOL     OW 8153   1.019   1.921   6.357
 2049SOL    HW1 8154   0.963   1.907   6.280
 2049SOL    HW2 8155   0.996   1.845   6.414
 2050SOL     OW 8156   1.415   3.041   6.470
 2050SOL    HW1 8157   1.357   2.966   6.491
 2050SOL    HW2 8158   1.416   3.038   6.374
 2051SOL     OW 8159   1.508   2.423   6.552
 2051SOL    HW1 8160   1.431   2.369   6.576
 2051SOL    HW2 8161   1.554   2.436   6.636
 2052SOL     OW 8162   1.843   2.689   5.978
 2052SOL    HW1 8163   1.937   2.673   5.973
 2052SOL    HW2 8164   1.809   2.630   5.907
 2053SOL     OW 8165   0.491   3.277   5.741
 2053SOL    HW1 8166   0.408   3.253   5.786
 2053SOL    HW2 8167   0.480   3.235   5.655
 2054SOL     OW 8168   1.657   3.143   6.241
 2054SOL    HW1 8169   1.755   3.149   6.245
 2054SOL    HW2 8170   1.629   3.233   6.267
 2055SOL     OW 8171   1.412   2.460   5.654
 2055SOL    HW1 8172   1.362   2.426   5.731
 2055SOL    HW2 8173   1.502   2.433   5.674
 2056SOL     OW 8174   0.524   2.102   5.902
 2056SOL    HW1 8175   0.572   2.068   5.823
 2056SOL    HW2 8176   0.497   2.189   5.867
 2057SOL     OW 8177   1.728   3.097   7.161
 2057SOL    HW1 8178   1.817   3.058   7.168
 2057SOL    HW2 8179   1.749   3.191   7.179
 2058SOL     OW 8180   1.063   3.227   6.926
 2058SOL    HW1 8181   0.984   3.197   6.974
 2058SOL    HW2 8182   1.133   3.173   6.968
 2059SOL     OW 8183   1.618   3.475   7.222
 2059SOL    HW1 8184   1.618   3.514   7.133
 2059SOL    HW2 8185   1.703   3.426   7.221
 2060SOL     OW 8186   1.132   3.084   6.686
 2060SOL    HW1 8187   1.071   3.119   6.751
 2060SOL    HW2 8188   1.105   3.130   6.605
 2061SOL     OW 8189   1.590   2.956   6.660
 2061SOL    HW1 8190   1.608   3.019   6.732
 2061SOL    HW2 8191   1.535   3.009   6.600
 2062SOL     OW 8192   0.929   1.957   6.992
 2062SOL    HW1 8193   0.957   1.944   6.899
 2062SOL    HW2 8194   1.005   2.004   7.029
 2063SOL     OW 8195   0.998   2.980   7.321
 2063SOL    HW1 8196   0.906   3.005   7.343
 2063SOL    HW2 8197   0.985   2.903   7.263
 2064SOL     OW 8198   0.713   2.927   5.938
 2064SOL    HW1 8199   0.692   2.899   6.028
 2064SOL    HW2 8200   0.794   2.874   5.919
 2065SOL     OW 8201   0.402   2.684   6.842
 2065SOL    HW1 8202   0.475   2.686   6.907
 2065SOL    HW2 8203   0.380   2.589   6.842
 2066SOL     OW 8204   1.270   2.250   6.857
 2066SOL    HW1 8205   1.287   2.330   6.911
 2066SOL    HW2 8206   1.175   2.260   6.835
 2067SOL     OW 8207   0.041   3.445   6.940
 2067SOL    HW1 8208   0.013   3.523   6.891
 2067SOL    HW2 8209   0.133   3.466   6.961
 2068SOL     OW 8210   0.364   2.959   6.075
 2068SOL    HW1 8211   0.379   3.033   6.016
 2068SOL    HW2 8212   0.344   2.887   6.013
 2069SOL     OW 8213   0.550   2.405   6.435
 2069SOL    HW1 8214   0.581   2.462   6.363
 2069SOL    HW2 8215   0.610   2.428   6.508
 2070SOL     OW 8216   1.217   3.197   5.982
 2070SOL    HW1 8217   1.264   3.274   6.017
 2070SOL    HW2 8218   1.127   3.213   6.015
 2071SOL     OW 8219   1.306   3.335   6.755
 2071SOL    HW1 8220   1.366   3.336   6.832
 2071SOL    HW2 8221   1.241   3.267   6.779
 2072SOL     OW 8222   1.596   2.480   6.069
 2072SOL    HW1 8223   1.540   2.530   6.132
 2072SOL    HW2 8224   1.608   2.545   5.999
 2073SOL     OW 8225   0.333   3.380   6.907
 2073SOL    HW1 8226   0.319   3.341   6.818
 2073SOL    HW2 8227   0.428   3.401   6.901
 2074SOL     OW 8228   0.410   2.598   7.184
 2074SOL    HW1 8229   0.481   2.636   7.129
 2074SOL    HW2 8230   0.439   2.506   7.190
 2075SOL     OW 8231   1.622   2.640   7.275
 2075SOL    HW1 8232   1.532   2.676   7.270
 2075SOL    HW2 8233   1.663   2.682   7.196
 2076SOL     OW 8234   0.999   1.971   7.356
 2076SOL    HW1 8235   1.053   2.046   7.328
 2076SOL    HW2 8236   1.042   1.898   7.308
 2077SOL     OW 8237   0.492   1.876   7.344
 2077SOL    HW1 8238   0.448   1.823   7.275
 2077SOL    HW2 8239   0.425   1.945   7.362
 2078SOL     OW 8240   0.604   2.760   6.623
 2078SOL    HW1 8241   0.631   2.853   6.623
 2078SOL    HW2 8242   0.537   2.756   6.692
 2079SOL     OW 8243   1.360   2.714   6.558
 2079SOL    HW1 8244   1.268   2.684   6.563
 2079SOL    HW2 8245   1.406   2.650   6.614
 2080SOL     OW 8246   1.230   2.374   5.851
 2080SOL    HW1 8247   1.242   2.301   5.915
 2080SOL    HW2 8248   1.163   2.427   5.897
 2081SOL     OW 8249   0.320   2.051   6.825
 2081SOL    HW1 8250   0.274   2.077   6.909
 2081SOL    HW2 8251   0.300   1.955   6.823
 2082SOL     OW 8252   0.052   3.184   6.869
 2082SOL    HW1 8253   0.121   3.146   6.925
 2082SOL    HW2 8254   0.049   3.278   6.900
 2083SOL     OW 8255   0.719   2.497   6.636
 2083SOL    HW1 8256   0.803   2.471   6.594
 2083SOL    HW2 8257   0.706   2.590   6.611
 2084SOL     OW 8258   1.771   2.811   7.435
 2084SOL    HW1 8259   1.722   2.754   7.373
 2084SOL    HW2 8260   1.706   2.825   7.504
 2085SOL     OW 8261   0.294   1.915   6.196
 2085SOL    HW1 8262   0.268   2.006   6.221
 2085SOL    HW2 8263   0.317   1.878   6.284
 2086SOL     OW 8264   1.598   2.245   5.939
 2086SOL    HW1 8265   1.634   2.177   5.998
 2086SOL    HW2 8266   1.589   2.323   5.999
 2087SOL     OW 8267   1.074   2.612   6.573
 2087SOL    HW1 8268   1.030   2.633   6.658
 2087SOL    HW2 8269   1.041   2.521   6.558
 2088SOL     OW 8270   0.977   3.433   7.290
 2088SOL    HW1 8271   0.963   3.489   7.211
 2088SOL    HW2 8272   1.008   3.350   7.250
 2089SOL     OW 8273   1.853   3.353   7.180
 2089SOL    HW1 8274   1.880   3.374   7.088
 2089SOL    HW2 8275   1.933   3.377   7.230
 2090SOL     OW 8276   0.346   2.754   7.392
 2090SOL    HW1 8277   0.430   2.769   7.439
 2090SOL    HW2 8278   0.372   2.688   7.324
 2091SOL     OW 8279   1.508   2.118   5.719
 2091SOL    HW1 8280   1.442   2.053   5.749
 2091SOL    HW2 8281   1.541   2.157   5.802
 2092SOL     OW 8282   1.287   2.693   5.610
 2092SOL    HW1 8283   1.340   2.612   5.622
 2092SOL    HW2 8284   1.313   2.720   5.519
 2093SOL     OW 8285   1.062   3.229   6.428
 2093SOL    HW1 8286   1.071   3.149   6.372
 2093SOL    HW2 8287   1.136   3.286   6.401
 2094SOL     OW 8288   0.289   2.694   6.545
 2094SOL    HW1 8289   0.378   2.711   6.511
 2094SOL    HW2 8290   0.299   2.605   6.583
 2095SOL     OW 8291   0.325   2.414   6.575
 2095SOL    HW1 8292   0.296   2.321   6.571
 2095SOL    HW2 8293   0.403   2.412   6.516
 2096SOL     OW 8294   1.151   2.227   7.279
 2096SOL    HW1 8295   1.103   2.282   7.343
 2096SOL    HW2 8296   1.237   2.273   7.275
 2097SOL     OW 8297   1.161   2.067   7.065
 2097SOL    HW1 8298   1.162   2.129   7.141
 2097SOL    HW2 8299   1.215   2.114   7.000
 2098SOL     OW 8300  11.087   3.193   5.774
 2098SOL    HW1 8301  10.998   3.197   5.735
 2098SOL    HW2 8302  11.084   3.109   5.823
 2099SOL     OW 8303   0.141   3.656   6.550
 2099SOL    HW1 8304   0.101   3.600   6.481
 2099SOL    HW2 8305   0.226   3.679   6.506
 2100SOL     OW 8306   0.489   3.443   6.496
 2100SOL    HW1 8307   0.562   3.507   6.506
 2100SOL    HW2 8308   0.531   3.373   6.443
 2101SOL     OW 8309   0.951   2.631   6.821
 2101SOL    HW1 8310   1.006   2.602   6.896
 2101SOL    HW2 8311   0.864   2.599   6.849
 2102SOL     OW 8312  11.089   2.475   6.682
 2102SOL    HW1 8313   0.048   2.426   6.624
 2102SOL    HW2 8314   0.019   2.447   6.770
 2103SOL     OW 8315   0.205   2.374   7.329
 2103SOL    HW1 8316   0.223   2.309   7.258
 2103SOL    HW2 8317   0.141   2.431   7.285
 2104SOL     OW 8318   1.381   2.772   7.241
 2104SOL    HW1 8319   1.406   2.866   7.237
 2104SOL    HW2 8320   1.365   2.751   7.148
 2105SOL     OW 8321   0.798   2.438   5.972
 2105SOL    HW1 8322   0.815   2.367   5.907
 2105SOL    HW2 8323   0.722   2.484   5.933
 2106SOL     OW 8324   1.637   2.483   6.792
 2106SOL    HW1 8325   1.609   2.424   6.864
 2106SOL    HW2 8326   1.720   2.442   6.762
 2107SOL     OW 8327   0.262   3.397   7.307
 2107SOL    HW1 8328   0.227   3.474   7.355
 2107SOL    HW2 8329   0.244   3.324   7.368
 2108SOL     OW 8330   0.697   2.333   6.852
 2108SOL    HW1 8331   0.644   2.257   6.822
 2108SOL    HW2 8332   0.689   2.395   6.776
 2109SOL     OW 8333   0.911   3.560   7.066
 2109SOL    HW1 8334   0.896   3.531   6.976
 2109SOL    HW2 8335   0.921   3.656   7.056
 2110SOL     OW 8336   0.458   2.346   5.786
 2110SOL    HW1 8337   0.523   2.418   5.790
 2110SOL    HW2 8338   0.376   2.398   5.778
 2111SOL     OW 8339   0.163   2.983   7.062
 2111SOL    HW1 8340   0.179   2.928   7.140
 2111SOL    HW2 8341   0.167   2.920   6.987
 2112SOL     OW 8342   1.319   2.896   6.811
 2112SOL    HW1 8343   1.345   2.850   6.730
 2112SOL    HW2 8344   1.254   2.961   6.776
 2113SOL     OW 8345   1.308   2.710   5.884
 2113SOL    HW1 8346   1.228   2.682   5.930
 2113SOL    HW2 8347   1.282   2.712   5.790
 2114SOL     OW 8348   1.755   3.609   6.720
 2114SOL    HW1 8349   1.826   3.633   6.657
 2114SOL    HW2 8350   1.745   3.513   6.702
 2115SOL     OW 8351   1.236   3.590   6.709
 2115SOL    HW1 8352   1.327   3.610   6.687
 2115SOL    HW2 8353   1.239   3.493   6.721
 2116SOL     OW 8354   0.094   3.142   6.606
 2116SOL    HW1 8355   0.079   3.165   6.700
 2116SOL    HW2 8356   0.017   3.088   6.585
 2117SOL     OW 8357   0.682   3.506   7.328
 2117SOL    HW1 8358   0.636   3.589   7.310
 2117SOL    HW2 8359   0.752   3.506   7.260
 2118SOL     OW 8360   1.687   2.002   6.083
 2118SOL    HW1 8361   1.751   1.983   6.013
 2118SOL    HW2 8362   1.684   1.916   6.132
 2119SOL     OW 8363   1.363   3.435   6.075
 2119SOL    HW1 8364   1.424   3.448   6.000
 2119SOL    HW2 8365   1.325   3.524   6.086
 2120SOL     OW 8366   0.173   3.628   7.427
 2120SOL    HW1 8367   0.117   3.567   7.479
 2120SOL    HW2 8368   0.210   3.683   7.498
 2121SOL     OW 8369   1.249   2.781   6.250
 2121SOL    HW1 8370   1.332   2.732   6.266
 2121SOL    HW2 8371   1.283   2.862   6.208
 2122SOL     OW 8372   0.812   3.132   7.025
 2122SOL    HW1 8373   0.785   3.182   7.105
 2122SOL    HW2 8374   0.737   3.152   6.968
 2123SOL     OW 8375   0.678   3.475   5.745
 2123SOL    HW1 8376   0.679   3.489   5.648
 2123SOL    HW2 8377   0.622   3.396   5.752
 2124SOL     OW 8378   1.622   3.581   6.968
 2124SOL    HW1 8379   1.668   3.596   6.883
 2124SOL    HW2 8380   1.612   3.672   7.004
 2125SOL     OW 8381   1.838   2.032   6.560
 2125SOL    HW1 8382   1.862   1.943   6.527
 2125SOL    HW2 8383   1.749   2.048   6.522
 2126SOL     OW 8384   0.247   2.168   6.296
 2126SOL    HW1 8385   0.154   2.193   6.285
 2126SOL    HW2 8386   0.258   2.175   6.392
 2127SOL     OW 8387   1.175   3.497   5.614
 2127SOL    HW1 8388   1.191   3.402   5.625
 2127SOL    HW2 8389   1.116   3.500   5.536
 2128SOL     OW 8390   0.800   2.866   6.967
 2128SOL    HW1 8391   0.837   2.867   6.878
 2128SOL    HW2 8392   0.810   2.959   6.996
 2129SOL     OW 8393   0.924   2.785   5.862
 2129SOL    HW1 8394   0.999   2.821   5.810
 2129SOL    HW2 8395   0.957   2.700   5.895
 2130SOL     OW 8396   1.516   3.462   5.625
 2130SOL    HW1 8397   1.425   3.490   5.616
 2130SOL    HW2 8398   1.548   3.465   5.532
 2131SOL     OW 8399   0.383   3.139   7.062
 2131SOL    HW1 8400   0.362   3.224   7.021
 2131SOL    HW2 8401   0.303   3.086   7.048
 2132SOL     OW 8402   1.611   3.168   6.852
 2132SOL    HW1 8403   1.641   3.138   6.939
 2132SOL    HW2 8404   1.547   3.238   6.878
 2133SOL     OW 8405   1.036   2.986   6.307
 2133SOL    HW1 8406   0.969   2.930   6.350
 2133SOL    HW2 8407   1.093   2.921   6.265
 2134SOL     OW 8408   1.031   2.092   6.575
 2134SOL    HW1 8409   1.019   2.047   6.489
 2134SOL    HW2 8410   1.034   2.016   6.636
 2135SOL     OW 8411   0.589   3.302   6.067
 2135SOL    HW1 8412   0.661   3.286   6.005
 2135SOL    HW2 8413   0.525   3.351   6.014
 2136SOL     OW 8414   1.717   2.232   6.962
 2136SOL    HW1 8415   1.784   2.304   6.960
 2136SOL    HW2 8416   1.762   2.162   6.910
 2137SOL     OW 8417   0.244   3.208   5.844
 2137SOL    HW1 8418   0.149   3.224   5.830
 2137SOL    HW2 8419   0.249   3.223   5.942
 2138SOL     OW 8420   0.128   2.879   7.331
 2138SOL    HW1 8421   0.066   2.859   7.403
 2138SOL    HW2 8422   0.213   2.839   7.363
 2139SOL     OW 8423   0.695   2.062   7.065
 2139SOL    HW1 8424   0.781   2.020   7.046
 2139SOL    HW2 8425   0.707   2.094   7.156
 2140SOL     OW 8426   0.089   2.193   5.629
 2140SOL    HW1 8427  11.097   2.198   5.607
 2140SOL    HW2 8428   0.125   2.270   5.580
 2141SOL     OW 8429   1.444   2.719   6.974
 2141SOL    HW1 8430   1.401   2.783   6.914
 2141SOL    HW2 8431   1.536   2.751   6.974
 2142SOL     OW 8432   0.065   2.027   5.898
 2142SOL    HW1 8433   0.066   2.100   5.835
 2142SOL    HW2 8434   0.145   1.978   5.873
 2143SOL     OW 8435   1.213   3.211   5.700
 2143SOL    HW1 8436   1.131   3.160   5.702
 2143SOL    HW2 8437   1.235   3.215   5.795
 2144SOL     OW 8438   0.609   2.680   7.015
 2144SOL    HW1 8439   0.667   2.757   7.006
 2144SOL    HW2 8440   0.677   2.610   7.024
 2145SOL     OW 8441   1.515   3.632   6.540
 2145SOL    HW1 8442   1.544   3.689   6.468
 2145SOL    HW2 8443   1.596   3.616   6.589
 2146SOL     OW 8444   0.737   2.408   7.279
 2146SOL    HW1 8445   0.751   2.474   7.349
 2146SOL    HW2 8446   0.725   2.325   7.327
 2147SOL     OW 8447   1.457   3.039   7.213
 2147SOL    HW1 8448   1.450   3.046   7.310
 2147SOL    HW2 8449   1.550   3.063   7.199
 2148SOL     OW 8450   0.390   3.595   7.147
 2148SOL    HW1 8451   0.304   3.638   7.129
 2148SOL    HW2 8452   0.358   3.511   7.184
 2149SOL     OW 8453   1.713   2.743   6.812
 2149SOL    HW1 8454   1.686   2.652   6.791
 2149SOL    HW2 8455   1.661   2.797   6.750
 2150SOL     OW 8456   1.215   2.200   6.065
 2150SOL    HW1 8457   1.280   2.126   6.060
 2150SOL    HW2 8458   1.253   2.253   6.138
 2151SOL     OW 8459   0.610   2.602   6.239
 2151SOL    HW1 8460   0.642   2.693   6.230
 2151SOL    HW2 8461   0.543   2.596   6.169
 2152SOL     OW 8462   1.768   2.241   7.227
 2152SOL    HW1 8463   1.740   2.249   7.134
 2152SOL    HW2 8464   1.691   2.196   7.266
 2153SOL     OW 8465   1.730   2.797   7.075
 2153SOL    HW1 8466   1.757   2.890   7.080
 2153SOL    HW2 8467   1.752   2.774   6.982
 2154SOL     OW 8468   0.858   3.222   5.617
 2154SOL    HW1 8469   0.838   3.236   5.712
 2154SOL    HW2 8470   0.886   3.310   5.586
 2155SOL     OW 8471   0.652   3.663   6.491
 2155SOL    HW1 8472   0.647   3.761   6.491
 2155SOL    HW2 8473   0.745   3.646   6.514
 2156SOL     OW 8474   0.872   2.812   6.434
 2156SOL    HW1 8475   0.920   2.738   6.475
 2156SOL    HW2 8476   0.837   2.860   6.511
 2157SOL     OW 8477   1.103   2.881   5.683
 2157SOL    HW1 8478   1.067   2.922   5.603
 2157SOL    HW2 8479   1.159   2.810   5.646
 2158SOL     OW 8480   1.893   3.407   6.420
 2158SOL    HW1 8481   1.806   3.420   6.379
 2158SOL    HW2 8482   1.873   3.348   6.494
 2159SOL     OW 8483   0.218   3.167   7.438
 2159SOL    HW1 8484   0.177   3.083   7.414
 2159SOL    HW2 8485   0.207   3.170   7.534
 2160SOL     OW 8486   0.074   3.097   6.260
 2160SOL    HW1 8487   0.115   3.048   6.332
 2160SOL    HW2 8488   0.124   3.066   6.184
 2161SOL     OW 8489   0.669   3.266   7.210
 2161SOL    HW1 8490   0.593   3.212   7.236
 2161SOL    HW2 8491   0.654   3.349   7.260
 2162SOL     OW 8492   1.826   2.025   6.823
 2162SOL    HW1 8493   1.830   1.928   6.828
 2162SOL    HW2 8494   1.830   2.038   6.726
 2163SOL     OW 8495   0.423   2.296   6.116
 2163SOL    HW1 8496   0.459   2.229   6.057
 2163SOL    HW2 8497   0.376   2.245   6.184
 2164SOL     OW 8498   1.720   3.352   6.669
 2164SOL    HW1 8499   1.639   3.327   6.621
 2164SOL    HW2 8500   1.716   3.290   6.743
 2165SOL     OW 8501   0.342   2.408   6.859
 2165SOL    HW1 8502   0.389   2.340   6.910
 2165SOL    HW2 8503   0.341   2.371   6.769
 2166SOL     OW 8504   0.815   3.469   6.259
 2166SOL    HW1 8505   0.791   3.527   6.185
 2166SOL    HW2 8506   0.741   3.406   6.265
 2167SOL     OW 8507   1.424   2.110   6.691
 2167SOL    HW1 8508   1.450   2.028   6.735
 2167SOL    HW2 8509   1.373   2.157   6.762
 2168SOL     OW 8510   1.020   1.871   6.739
 2168SOL    HW1 8511   0.962   1.799   6.710
 2168SOL    HW2 8512   1.109   1.827   6.734
 2169SOL     OW 8513   0.796   3.203   5.899
 2169SOL    HW1 8514   0.765   3.111   5.908
 2169SOL    HW2 8515   0.868   3.205   5.964
 2170SOL     OW 8516   0.596   3.424   6.865
 2170SOL    HW1 8517   0.602   3.512   6.907
 2170SOL    HW2 8518   0.688   3.414   6.835
 2171SOL     OW 8519   1.334   1.914   5.790
 2171SOL    HW1 8520   1.352   1.855   5.716
 2171SOL    HW2 8521   1.245   1.881   5.817
 2172SOL     OW 8522   1.319   2.340   6.274
 2172SOL    HW1 8523   1.256   2.415   6.273
 2172SOL    HW2 8524   1.291   2.292   6.354
 2173SOL     OW 8525   1.593   2.063   6.459
 2173SOL    HW1 8526   1.524   2.077   6.526
 2173SOL    HW2 8527   1.576   2.135   6.396
 2174SOL     OW 8528   0.035   2.945   5.899
 2174SOL    HW1 8529   0.127   2.954   5.872
 2174SOL    HW2 8530   0.027   2.848   5.909
 2175SOL     OW 8531   0.895   3.506   5.920
 2175SOL    HW1 8532   0.821   3.491   5.858
 2175SOL    HW2 8533   0.870   3.587   5.967
 2176SOL     OW 8534   0.244   2.513   7.570
 2176SOL    HW1 8535   0.161   2.485   7.611
 2176SOL    HW2 8536   0.245   2.466   7.485
 2177SOL     OW 8537   0.237   2.154   8.450
 2177SOL    HW1 8538   0.270   2.129   8.539
 2177SOL    HW2 8539   0.161   2.094   8.443
 2178SOL     OW 8540  11.095   2.243   8.088
 2178SOL    HW1 8541  11.016   2.275   8.133
 2178SOL    HW2 8542  11.069   2.153   8.059
 2179SOL     OW 8543   0.564   3.153   8.628
 2179SOL    HW1 8544   0.470   3.134   8.613
 2179SOL    HW2 8545   0.561   3.248   8.648
 2180SOL     OW 8546   1.557   3.369   8.164
 2180SOL    HW1 8547   1.523   3.352   8.254
 2180SOL    HW2 8548   1.481   3.349   8.107
 2181SOL     OW 8549   1.133   2.541   8.161
 2181SOL    HW1 8550   1.161   2.629   8.131
 2181SOL    HW2 8551   1.092   2.561   8.246
 2182SOL     OW 8552   1.776   2.471   7.687
 2182SOL    HW1 8553   1.757   2.464   7.591
 2182SOL    HW2 8554   1.723   2.398   7.723
 2183SOL     OW 8555   0.756   3.039   8.476
 2183SOL    HW1 8556   0.686   3.076   8.534
 2183SOL    HW2 8557   0.781   3.119   8.427
 2184SOL     OW 8558   0.884   2.615   9.249
 2184SOL    HW1 8559   0.853   2.679   9.313
 2184SOL    HW2 8560   0.913   2.670   9.173
 2185SOL     OW 8561   0.686   2.881   8.089
 2185SOL    HW1 8562   0.746   2.862   8.163
 2185SOL    HW2 8563   0.613   2.930   8.132
 2186SOL     OW 8564   0.705   3.021   9.245
 2186SOL    HW1 8565   0.750   3.102   9.276
 2186SOL    HW2 8566   0.619   3.055   9.213
 2187SOL     OW 8567   0.320   3.306   8.526
 2187SOL    HW1 8568   0.246   3.264   8.479
 2187SOL    HW2 8569   0.365   3.355   8.455
 2188SOL     OW 8570   1.470   3.357   8.824
 2188SOL    HW1 8571   1.525   3.438   8.836
 2188SOL    HW2 8572   1.405   3.367   8.896
 2189SOL     OW 8573   0.439   2.247   8.983
 2189SOL    HW1 8574   0.522   2.201   8.964
 2189SOL    HW2 8575   0.372   2.191   8.942
 2190SOL     OW 8576   1.632   2.315   8.203
 2190SOL    HW1 8577   1.569   2.336   8.132
 2190SOL    HW2 8578   1.592   2.360   8.279
 2191SOL     OW 8579   0.259   3.536   7.948
 2191SOL    HW1 8580   0.251   3.625   7.986
 2191SOL    HW2 8581   0.291   3.558   7.859
 2192SOL     OW 8582   1.121   3.207   9.116
 2192SOL    HW1 8583   1.164   3.206   9.202
 2192SOL    HW2 8584   1.074   3.121   9.118
 2193SOL     OW 8585   0.250   3.270   7.968
 2193SOL    HW1 8586   0.247   3.367   7.967
 2193SOL    HW2 8587   0.179   3.249   8.032
 2194SOL     OW 8588   0.265   2.977   8.347
 2194SOL    HW1 8589   0.247   2.895   8.397
 2194SOL    HW2 8590   0.206   3.041   8.390
 2195SOL     OW 8591   0.621   3.669   8.859
 2195SOL    HW1 8592   0.545   3.637   8.911
 2195SOL    HW2 8593   0.634   3.759   8.895
 2196SOL     OW 8594   0.578   2.854   7.577
 2196SOL    HW1 8595   0.622   2.907   7.508
 2196SOL    HW2 8596   0.625   2.884   7.657
 2197SOL     OW 8597   1.602   1.965   8.948
 2197SOL    HW1 8598   1.593   2.040   8.887
 2197SOL    HW2 8599   1.618   2.010   9.031
 2198SOL     OW 8600   0.127   2.506   8.000
 2198SOL    HW1 8601   0.109   2.410   8.003
 2198SOL    HW2 8602   0.105   2.536   8.090
 2199SOL     OW 8603   1.855   3.606   7.796
 2199SOL    HW1 8604   1.894   3.600   7.885
 2199SOL    HW2 8605   1.862   3.702   7.778
 2200SOL     OW 8606   0.046   3.451   7.574
 2200SOL    HW1 8607   0.019   3.358   7.582
 2200SOL    HW2 8608   0.009   3.491   7.653
 2201SOL     OW 8609   1.705   2.767   8.058
 2201SOL    HW1 8610   1.755   2.732   7.982
 2201SOL    HW2 8611   1.655   2.839   8.016
 2202SOL     OW 8612   1.639   2.987   7.888
 2202SOL    HW1 8613   1.729   2.984   7.853
 2202SOL    HW2 8614   1.650   3.049   7.963
 2203SOL     OW 8615   0.120   2.601   9.034
 2203SOL    HW1 8616   0.203   2.640   9.065
 2203SOL    HW2 8617   0.063   2.678   9.020
 2204SOL     OW 8618   0.607   3.256   8.199
 2204SOL    HW1 8619   0.557   3.172   8.206
 2204SOL    HW2 8620   0.599   3.272   8.103
 2205SOL     OW 8621   1.275   3.085   8.866
 2205SOL    HW1 8622   1.312   3.019   8.806
 2205SOL    HW2 8623   1.331   3.075   8.945
 2206SOL     OW 8624   0.819   1.857   7.956
 2206SOL    HW1 8625   0.851   1.948   7.945
 2206SOL    HW2 8626   0.722   1.869   7.960
 2207SOL     OW 8627   0.175   2.856   8.696
 2207SOL    HW1 8628   0.257   2.804   8.683
 2207SOL    HW2 8629   0.107   2.795   8.663
 2208SOL     OW 8630   1.543   2.828   7.635
 2208SOL    HW1 8631   1.465   2.777   7.664
 2208SOL    HW2 8632   1.574   2.865   7.719
 2209SOL     OW 8633   1.171   3.658   9.066
 2209SOL    HW1 8634   1.176   3.720   8.991
 2209SOL    HW2 8635   1.199   3.575   9.025
 2210SOL     OW 8636   0.331   2.094   9.255
 2210SOL    HW1 8637   0.394   2.160   9.286
 2210SOL    HW2 8638   0.247   2.127   9.291
 2211SOL     OW 8639   1.470   3.281   8.406
 2211SOL    HW1 8640   1.413   3.304   8.482
 2211SOL    HW2 8641   1.437   3.192   8.382
 2212SOL     OW 8642   1.670   3.586   8.058
 2212SOL    HW1 8643   1.640   3.575   7.967
 2212SOL    HW2 8644   1.637   3.504   8.100
 2213SOL     OW 8645   0.587   2.583   7.706
 2213SOL    HW1 8646   0.592   2.674   7.672
 2213SOL    HW2 8647   0.518   2.589   7.775
 2214SOL     OW 8648   1.272   2.191   8.356
 2214SOL    HW1 8649   1.183   2.162   8.383
 2214SOL    HW2 8650   1.328   2.154   8.428
 2215SOL     OW 8651   1.570   3.520   7.747
 2215SOL    HW1 8652   1.665   3.539   7.755
 2215SOL    HW2 8653   1.564   3.502   7.652
 2216SOL     OW 8654   0.793   2.485   8.915
 2216SOL    HW1 8655   0.769   2.447   9.002
 2216SOL    HW2 8656   0.752   2.421   8.852
 2217SOL     OW 8657   1.392   2.344   9.116
 2217SOL    HW1 8658   1.401   2.402   9.194
 2217SOL    HW2 8659   1.450   2.269   9.139
 2218SOL     OW 8660   0.964   2.753   9.027
 2218SOL    HW1 8661   0.999   2.671   8.987
 2218SOL    HW2 8662   0.913   2.789   8.952
 2219SOL     OW 8663   0.984   2.256   8.674
 2219SOL    HW1 8664   0.895   2.280   8.703
 2219SOL    HW2 8665   0.968   2.197   8.599
 2220SOL     OW 8666   1.038   2.544   7.851
 2220SOL    HW1 8667   1.055   2.562   7.944
 2220SOL    HW2 8668   0.951   2.498   7.854
 2221SOL     OW 8669   0.086   2.664   8.218
 2221SOL    HW1 8670   0.170   2.653   8.266
 2221SOL    HW2 8671   0.049   2.740   8.266
 2222SOL     OW 8672   0.139   3.679   8.978
 2222SOL    HW1 8673   0.155   3.690   9.074
 2222SOL    HW2 8674   0.048   3.711   8.970
 2223SOL     OW 8675   0.873   2.234   7.660
 2223SOL    HW1 8676   0.909   2.287   7.588
 2223SOL    HW2 8677   0.890   2.145   7.627
 2224SOL     OW 8678   1.723   2.449   9.280
 2224SOL    HW1 8679   1.684   2.525   9.232
 2224SOL    HW2 8680   1.747   2.391   9.205
 2225SOL     OW 8681   1.362   3.020   8.010
 2225SOL    HW1 8682   1.440   3.007   7.955
 2225SOL    HW2 8683   1.309   3.078   7.953
 2226SOL     OW 8684   0.586   2.071   8.331
 2226SOL    HW1 8685   0.585   2.075   8.429
 2226SOL    HW2 8686   0.564   2.161   8.306
 2227SOL     OW 8687   0.980   3.299   7.940
 2227SOL    HW1 8688   0.952   3.359   7.868
 2227SOL    HW2 8689   1.013   3.360   8.007
 2228SOL     OW 8690   0.364   3.676   8.281
 2228SOL    HW1 8691   0.386   3.581   8.293
 2228SOL    HW2 8692   0.444   3.716   8.316
 2229SOL     OW 8693   1.801   2.893   8.326
 2229SOL    HW1 8694   1.756   2.927   8.247
 2229SOL    HW2 8695   1.733   2.905   8.396
 2230SOL     OW 8696   1.223   3.418   8.952
 2230SOL    HW1 8697   1.197   3.351   9.017
 2230SOL    HW2 8698   1.181   3.383   8.872
 2231SOL     OW 8699   0.319   2.814   7.707
 2231SOL    HW1 8700   0.399   2.835   7.655
 2231SOL    HW2 8701   0.299   2.723   7.679
 2232SOL     OW 8702   1.479   2.612   8.157
 2232SOL    HW1 8703   1.476   2.582   8.249
 2232SOL    HW2 8704   1.561   2.664   8.155
 2233SOL     OW 8705   0.466   3.123   9.168
 2233SOL    HW1 8706   0.432   3.127   9.076
 2233SOL    HW2 8707   0.386   3.142   9.219
 2234SOL     OW 8708   1.099   3.628   7.690
 2234SOL    HW1 8709   1.028   3.576   7.731
 2234SOL    HW2 8710   1.116   3.579   7.608
 2235SOL     OW 8711   0.179   2.139   8.940
 2235SOL    HW1 8712   0.105   2.190   8.978
 2235SOL    HW2 8713   0.191   2.071   9.007
 2236SOL     OW 8714   1.633   3.212   7.538
 2236SOL    HW1 8715   1.603   3.301   7.511
 2236SOL    HW2 8716   1.562   3.153   7.504
 2237SOL     OW 8717   0.448   3.619   7.762
 2237SOL    HW1 8718   0.506   3.653   7.832
 2237SOL    HW2 8719   0.510   3.569   7.706
 2238SOL     OW 8720   1.396   2.003   7.904
 2238SOL    HW1 8721   1.382   1.953   7.821
 2238SOL    HW2 8722   1.490   2.021   7.900
 2239SOL     OW 8723   0.254   3.670   8.670
 2239SOL    HW1 8724   0.277   3.609   8.741
 2239SOL    HW2 8725   0.232   3.611   8.597
 2240SOL     OW 8726   0.955   3.569   8.327
 2240SOL    HW1 8727   1.035   3.522   8.352
 2240SOL    HW2 8728   0.913   3.507   8.265
 2241SOL     OW 8729   0.412   2.558   7.910
 2241SOL    HW1 8730   0.437   2.463   7.922
 2241SOL    HW2 8731   0.320   2.556   7.940
 2242SOL     OW 8732   1.541   2.121   9.178
 2242SOL    HW1 8733   1.541   2.125   9.277
 2242SOL    HW2 8734   1.488   2.040   9.166
 2243SOL     OW 8735   0.639   1.993   7.539
 2243SOL    HW1 8736   0.702   1.929   7.573
 2243SOL    HW2 8737   0.590   1.940   7.473
 2244SOL     OW 8738   0.767   2.131   9.192
 2244SOL    HW1 8739   0.843   2.071   9.207
 2244SOL    HW2 8740   0.709   2.109   9.267
 2245SOL     OW 8741   0.880   3.408   8.639
 2245SOL    HW1 8742   0.871   3.380   8.546
 2245SOL    HW2 8743   0.935   3.338   8.678
 2246SOL     OW 8744   1.324   2.462   8.880
 2246SOL    HW1 8745   1.360   2.426   8.964
 2246SOL    HW2 8746   1.383   2.538   8.863
 2247SOL     OW 8747   0.813   3.286   8.366
 2247SOL    HW1 8748   0.898   3.259   8.325
 2247SOL    HW2 8749   0.747   3.267   8.296
 2248SOL     OW 8750   0.946   2.388   8.359
 2248SOL    HW1 8751   0.922   2.375   8.264
 2248SOL    HW2 8752   0.969   2.298   8.385
 2249SOL     OW 8753   0.555   1.914   7.944
 2249SOL    HW1 8754   0.470   1.916   7.991
 2249SOL    HW2 8755   0.546   1.991   7.884
 2250SOL     OW 8756   1.444   3.033   7.476
 2250SOL    HW1 8757   1.473   2.960   7.535
 2250SOL    HW2 8758   1.354   3.052   7.506
 2251SOL     OW 8759   0.289   1.896   7.665
 2251SOL    HW1 8760   0.334   1.957   7.605
 2251SOL    HW2 8761   0.361   1.839   7.699
 2252SOL     OW 8762   0.937   2.115   7.938
 2252SOL    HW1 8763   0.914   2.164   7.858
 2252SOL    HW2 8764   1.032   2.135   7.948
 2253SOL     OW 8765   1.069   2.543   8.911
 2253SOL    HW1 8766   1.016   2.462   8.918
 2253SOL    HW2 8767   1.161   2.510   8.911
 2254SOL     OW 8768   1.227   3.451   8.240
 2254SOL    HW1 8769   1.239   3.504   8.160
 2254SOL    HW2 8770   1.309   3.466   8.288
 2255SOL     OW 8771   0.464   3.025   8.173
 2255SOL    HW1 8772   0.392   3.008   8.237
 2255SOL    HW2 8773   0.420   3.001   8.089
 2256SOL     OW 8774   1.250   3.685   8.037
 2256SOL    HW1 8775   1.307   3.728   7.969
 2256SOL    HW2 8776   1.275   3.734   8.116
 2257SOL     OW 8777   1.059   2.401   7.463
 2257SOL    HW1 8778   1.007   2.482   7.455
 2257SOL    HW2 8779   1.127   2.423   7.530
 2258SOL     OW 8780   0.065   2.434   8.830
 2258SOL    HW1 8781   0.155   2.425   8.797
 2258SOL    HW2 8782   0.076   2.500   8.902
 2259SOL     OW 8783   0.581   2.073   8.605
 2259SOL    HW1 8784   0.622   1.998   8.651
 2259SOL    HW2 8785   0.490   2.071   8.640
 2260SOL     OW 8786   0.884   2.319   8.114
 2260SOL    HW1 8787   0.829   2.365   8.050
 2260SOL    HW2 8788   0.900   2.234   8.070
 2261SOL     OW 8789   0.998   1.934   8.216
 2261SOL    HW1 8790   0.945   1.916   8.137
 2261SOL    HW2 8791   0.982   1.854   8.270
 2262SOL     OW 8792   1.410   3.029   8.330
 2262SOL    HW1 8793   1.337   2.970   8.354
 2262SOL    HW2 8794   1.412   3.021   8.234
 2263SOL     OW 8795   1.493   2.434   8.419
 2263SOL    HW1 8796   1.431   2.361   8.435
 2263SOL    HW2 8797   1.540   2.443   8.503
 2264SOL     OW 8798   1.842   2.687   7.837
 2264SOL    HW1 8799   1.896   2.633   7.898
 2264SOL    HW2 8800   1.825   2.622   7.766
 2265SOL     OW 8801   0.493   3.277   7.587
 2265SOL    HW1 8802   0.404   3.262   7.624
 2265SOL    HW2 8803   0.487   3.232   7.503
 2266SOL     OW 8804   1.695   3.115   8.133
 2266SOL    HW1 8805   1.791   3.125   8.115
 2266SOL    HW2 8806   1.665   3.207   8.147
 2267SOL     OW 8807   1.408   2.459   7.509
 2267SOL    HW1 8808   1.359   2.431   7.589
 2267SOL    HW2 8809   1.494   2.418   7.523
 2268SOL     OW 8810   0.526   2.105   7.763
 2268SOL    HW1 8811   0.565   2.070   7.680
 2268SOL    HW2 8812   0.500   2.193   7.731
 2269SOL     OW 8813   1.731   3.093   9.015
 2269SOL    HW1 8814   1.820   3.057   9.028
 2269SOL    HW2 8815   1.747   3.187   9.037
 2270SOL     OW 8816   1.059   3.234   8.791
 2270SOL    HW1 8817   0.980   3.201   8.836
 2270SOL    HW2 8818   1.128   3.177   8.830
 2271SOL     OW 8819   1.597   3.470   9.086
 2271SOL    HW1 8820   1.608   3.507   8.996
 2271SOL    HW2 8821   1.681   3.420   9.096
 2272SOL     OW 8822   1.134   3.092   8.540
 2272SOL    HW1 8823   1.070   3.102   8.611
 2272SOL    HW2 8824   1.088   3.133   8.464
 2273SOL     OW 8825   1.609   2.968   8.515
 2273SOL    HW1 8826   1.606   3.030   8.591
 2273SOL    HW2 8827   1.546   3.010   8.454
 2274SOL     OW 8828   0.936   1.950   8.850
 2274SOL    HW1 8829   0.966   1.937   8.758
 2274SOL    HW2 8830   1.011   1.999   8.889
 2275SOL     OW 8831   0.990   2.975   9.189
 2275SOL    HW1 8832   0.896   2.993   9.207
 2275SOL    HW2 8833   0.986   2.899   9.128
 2276SOL     OW 8834   0.715   2.920   7.809
 2276SOL    HW1 8835   0.706   2.899   7.904
 2276SOL    HW2 8836   0.795   2.868   7.785
 2277SOL     OW 8837   0.386   2.681   8.701
 2277SOL    HW1 8838   0.459   2.683   8.766
 2277SOL    HW2 8839   0.362   2.586   8.703
 2278SOL     OW 8840   1.281   2.253   8.705
 2278SOL    HW1 8841   1.295   2.329   8.765
 2278SOL    HW2 8842   1.187   2.264   8.681
 2279SOL     OW 8843   0.024   3.432   8.832
 2279SOL    HW1 8844   0.003   3.511   8.780
 2279SOL    HW2 8845   0.117   3.445   8.853
 2280SOL     OW 8846   0.353   2.965   7.939
 2280SOL    HW1 8847   0.369   3.035   7.875
 2280SOL    HW2 8848   0.335   2.888   7.882
 2281SOL     OW 8849   0.551   2.405   8.293
 2281SOL    HW1 8850   0.582   2.464   8.222
 2281SOL    HW2 8851   0.604   2.434   8.369
 2282SOL     OW 8852   1.228   3.196   7.842
 2282SOL    HW1 8853   1.267   3.281   7.870
 2282SOL    HW2 8854   1.141   3.200   7.883
 2283SOL     OW 8855   1.306   3.336   8.615
 2283SOL    HW1 8856   1.364   3.332   8.694
 2283SOL    HW2 8857   1.241   3.266   8.633
 2284SOL     OW 8858   1.587   2.467   7.924
 2284SOL    HW1 8859   1.524   2.512   7.983
 2284SOL    HW2 8860   1.608   2.537   7.861
 2285SOL     OW 8861   0.321   3.374   8.786
 2285SOL    HW1 8862   0.311   3.339   8.696
 2285SOL    HW2 8863   0.413   3.407   8.781
 2286SOL     OW 8864   0.423   2.596   9.054
 2286SOL    HW1 8865   0.484   2.638   8.991
 2286SOL    HW2 8866   0.455   2.505   9.051
 2287SOL     OW 8867   1.623   2.642   9.126
 2287SOL    HW1 8868   1.533   2.678   9.125
 2287SOL    HW2 8869   1.664   2.690   9.051
 2288SOL     OW 8870   0.987   1.973   9.207
 2288SOL    HW1 8871   1.051   2.043   9.189
 2288SOL    HW2 8872   1.034   1.896   9.169
 2289SOL     OW 8873   0.489   1.883   9.199
 2289SOL    HW1 8874   0.448   1.824   9.134
 2289SOL    HW2 8875   0.424   1.956   9.205
 2290SOL     OW 8876   0.606   2.756   8.497
 2290SOL    HW1 8877   0.626   2.850   8.496
 2290SOL    HW2 8878   0.535   2.748   8.562
 2291SOL     OW 8879   1.354   2.717   8.473
 2291SOL    HW1 8880   1.268   2.681   8.448
 2291SOL    HW2 8881   1.407   2.637   8.483
 2292SOL     OW 8882   1.226   2.390   7.715
 2292SOL    HW1 8883   1.231   2.320   7.783
 2292SOL    HW2 8884   1.155   2.446   7.752
 2293SOL     OW 8885   0.311   2.058   8.689
 2293SOL    HW1 8886   0.241   2.085   8.751
 2293SOL    HW2 8887   0.298   1.961   8.688
 2294SOL     OW 8888   0.065   3.175   8.721
 2294SOL    HW1 8889   0.114   3.118   8.782
 2294SOL    HW2 8890   0.050   3.257   8.772
 2295SOL     OW 8891   0.727   2.505   8.502
 2295SOL    HW1 8892   0.808   2.487   8.449
 2295SOL    HW2 8893   0.705   2.598   8.484
 2296SOL     OW 8894   1.762   2.813   9.298
 2296SOL    HW1 8895   1.719   2.753   9.235
 2296SOL    HW2 8896   1.695   2.819   9.367
 2297SOL     OW 8897   0.289   1.913   8.053
 2297SOL    HW1 8898   0.275   2.005   8.079
 2297SOL    HW2 8899   0.315   1.873   8.139
 2298SOL     OW 8900   1.611   2.234   7.806
 2298SOL    HW1 8901   1.647   2.176   7.875
 2298SOL    HW2 8902   1.594   2.317   7.857
 2299SOL     OW 8903   1.068   2.617   8.429
 2299SOL    HW1 8904   1.032   2.637   8.517
 2299SOL    HW2 8905   1.036   2.526   8.415
 2300SOL     OW 8906   0.974   3.429   9.149
 2300SOL    HW1 8907   0.963   3.478   9.064
 2300SOL    HW2 8908   1.007   3.343   9.119
 2301SOL     OW 8909   1.848   3.355   9.051
 2301SOL    HW1 8910   1.871   3.383   8.961
 2301SOL    HW2 8911   1.926   3.382   9.102
 2302SOL     OW 8912   0.349   2.740   9.265
 2302SOL    HW1 8913   0.433   2.767   9.307
 2302SOL    HW2 8914   0.380   2.677   9.198
 2303SOL     OW 8915   1.516   2.127   7.576
 2303SOL    HW1 8916   1.446   2.069   7.609
 2303SOL    HW2 8917   1.557   2.161   7.658
 2304SOL     OW 8918   1.285   2.696   7.476
 2304SOL    HW1 8919   1.335   2.613   7.489
 2304SOL    HW2 8920   1.316   2.722   7.387
 2305SOL     OW 8921   1.055   3.223   8.290
 2305SOL    HW1 8922   1.071   3.142   8.237
 2305SOL    HW2 8923   1.132   3.279   8.270
 2306SOL     OW 8924   0.280   2.694   8.415
 2306SOL    HW1 8925   0.368   2.708   8.379
 2306SOL    HW2 8926   0.290   2.607   8.458
 2307SOL     OW 8927   0.330   2.414   8.441
 2307SOL    HW1 8928   0.292   2.324   8.431
 2307SOL    HW2 8929   0.403   2.411   8.376
 2308SOL     OW 8930   1.155   2.224   9.144
 2308SOL    HW1 8931   1.108   2.281   9.208
 2308SOL    HW2 8932   1.242   2.266   9.141
 2309SOL     OW 8933   1.161   2.065   8.929
 2309SOL    HW1 8934   1.160   2.129   9.003
 2309SOL    HW2 8935   1.215   2.110   8.863
 2310SOL     OW 8936  11.089   3.180   7.639
 2310SOL    HW1 8937  10.993   3.185   7.645
 2310SOL    HW2 8938   0.003   3.091   7.678
 2311SOL     OW 8939   0.120   3.657   8.396
 2311SOL    HW1 8940   0.083   3.590   8.336
 2311SOL    HW2 8941   0.207   3.674   8.355
 2312SOL     OW 8942   0.496   3.451   8.356
 2312SOL    HW1 8943   0.571   3.513   8.362
 2312SOL    HW2 8944   0.534   3.375   8.308
 2313SOL     OW 8945   0.955   2.635   8.676
 2313SOL    HW1 8946   1.006   2.602   8.753
 2313SOL    HW2 8947   0.866   2.606   8.697
 2314SOL     OW 8948  11.086   2.441   8.533
 2314SOL    HW1 8949   0.064   2.406   8.491
 2314SOL    HW2 8950   0.005   2.428   8.627
 2315SOL     OW 8951   0.215   2.388   9.180
 2315SOL    HW1 8952   0.271   2.343   9.114
 2315SOL    HW2 8953   0.173   2.457   9.127
 2316SOL     OW 8954   1.383   2.773   9.100
 2316SOL    HW1 8955   1.405   2.868   9.097
 2316SOL    HW2 8956   1.361   2.754   9.008
 2317SOL     OW 8957   0.794   2.438   7.825
 2317SOL    HW1 8958   0.805   2.367   7.760
 2317SOL    HW2 8959   0.714   2.484   7.793
 2318SOL     OW 8960   1.637   2.481   8.649
 2318SOL    HW1 8961   1.615   2.424   8.724
 2318SOL    HW2 8962   1.717   2.439   8.613
 2319SOL     OW 8963   0.262   3.413   9.176
 2319SOL    HW1 8964   0.230   3.489   9.228
 2319SOL    HW2 8965   0.251   3.337   9.237
 2320SOL     OW 8966   0.693   2.339   8.712
 2320SOL    HW1 8967   0.649   2.260   8.678
 2320SOL    HW2 8968   0.690   2.400   8.636
 2321SOL     OW 8969   0.909   3.541   8.906
 2321SOL    HW1 8970   0.888   3.510   8.816
 2321SOL    HW2 8971   0.878   3.633   8.907
 2322SOL     OW 8972   0.462   2.346   7.650
 2322SOL    HW1 8973   0.521   2.423   7.645
 2322SOL    HW2 8974   0.375   2.388   7.643
 2323SOL     OW 8975   0.162   2.992   8.931
 2323SOL    HW1 8976   0.169   2.934   9.008
 2323SOL    HW2 8977   0.169   2.930   8.856
 2324SOL     OW 8978   1.327   2.915   8.664
 2324SOL    HW1 8979   1.337   2.847   8.594
 2324SOL    HW2 8980   1.265   2.978   8.623
 2325SOL     OW 8981   1.317   2.716   7.745
 2325SOL    HW1 8982   1.233   2.690   7.785
 2325SOL    HW2 8983   1.295   2.715   7.650
 2326SOL     OW 8984   1.746   3.615   8.577
 2326SOL    HW1 8985   1.819   3.643   8.518
 2326SOL    HW2 8986   1.742   3.519   8.559
 2327SOL     OW 8987   1.245   3.592   8.561
 2327SOL    HW1 8988   1.335   3.610   8.530
 2327SOL    HW2 8989   1.251   3.497   8.583
 2328SOL     OW 8990   0.094   3.151   8.457
 2328SOL    HW1 8991   0.087   3.167   8.554
 2328SOL    HW2 8992   0.026   3.084   8.442
 2329SOL     OW 8993   0.671   3.507   9.192
 2329SOL    HW1 8994   0.623   3.590   9.177
 2329SOL    HW2 8995   0.751   3.521   9.140
 2330SOL     OW 8996   1.704   2.027   7.960
 2330SOL    HW1 8997   1.765   2.007   7.887
 2330SOL    HW2 8998   1.690   1.939   8.001
 2331SOL     OW 8999   1.356   3.436   7.921
 2331SOL    HW1 9000   1.421   3.456   7.851
 2331SOL    HW2 9001   1.322   3.525   7.941
 2332SOL     OW 9002   1.256   2.778   8.107
 2332SOL    HW1 9003   1.335   2.724   8.123
 2332SOL    HW2 9004   1.294   2.858   8.065
 2333SOL     OW 9005   0.810   3.126   8.885
 2333SOL    HW1 9006   0.782   3.176   8.964
 2333SOL    HW2 9007   0.735   3.143   8.826
 2334SOL     OW 9008   0.670   3.474   7.603
 2334SOL    HW1 9009   0.680   3.488   7.507
 2334SOL    HW2 9010   0.612   3.395   7.604
 2335SOL     OW 9011   1.619   3.582   8.838
 2335SOL    HW1 9012   1.664   3.599   8.754
 2335SOL    HW2 9013   1.605   3.672   8.873
 2336SOL     OW 9014   1.837   2.026   8.422
 2336SOL    HW1 9015   1.857   1.936   8.392
 2336SOL    HW2 9016   1.750   2.045   8.381
 2337SOL     OW 9017   0.265   2.163   8.147
 2337SOL    HW1 9018   0.171   2.189   8.137
 2337SOL    HW2 9019   0.275   2.157   8.243
 2338SOL     OW 9020   1.182   3.492   7.472
 2338SOL    HW1 9021   1.200   3.397   7.481
 2338SOL    HW2 9022   1.122   3.497   7.396
 2339SOL     OW 9023   0.803   2.865   8.826
 2339SOL    HW1 9024   0.833   2.870   8.735
 2339SOL    HW2 9025   0.815   2.957   8.858
 2340SOL     OW 9026   0.928   2.787   7.725
 2340SOL    HW1 9027   1.004   2.824   7.676
 2340SOL    HW2 9028   0.960   2.701   7.756
 2341SOL     OW 9029   1.555   3.472   7.478
 2341SOL    HW1 9030   1.460   3.489   7.474
 2341SOL    HW2 9031   1.581   3.480   7.384
 2342SOL     OW 9032   0.385   3.132   8.917
 2342SOL    HW1 9033   0.358   3.216   8.878
 2342SOL    HW2 9034   0.303   3.079   8.914
 2343SOL     OW 9035   1.605   3.168   8.709
 2343SOL    HW1 9036   1.646   3.136   8.791
 2343SOL    HW2 9037   1.547   3.238   8.745
 2344SOL     OW 9038   1.062   2.975   8.175
 2344SOL    HW1 9039   0.987   2.925   8.211
 2344SOL    HW2 9040   1.116   2.903   8.137
 2345SOL     OW 9041   1.031   2.091   8.433
 2345SOL    HW1 9042   1.012   2.051   8.346
 2345SOL    HW2 9043   1.036   2.013   8.491
 2346SOL     OW 9044   0.603   3.335   7.929
 2346SOL    HW1 9045   0.660   3.294   7.861
 2346SOL    HW2 9046   0.519   3.346   7.884
 2347SOL     OW 9047   1.705   2.232   8.827
 2347SOL    HW1 9048   1.769   2.306   8.826
 2347SOL    HW2 9049   1.753   2.164   8.774
 2348SOL     OW 9050   0.244   3.227   7.711
 2348SOL    HW1 9051   0.147   3.233   7.699
 2348SOL    HW2 9052   0.252   3.237   7.809
 2349SOL     OW 9053   0.137   2.871   9.189
 2349SOL    HW1 9054   0.070   2.827   9.242
 2349SOL    HW2 9055   0.219   2.826   9.221
 2350SOL     OW 9056   0.697   2.062   8.927
 2350SOL    HW1 9057   0.783   2.021   8.905
 2350SOL    HW2 9058   0.711   2.094   9.018
 2351SOL     OW 9059   0.082   2.190   7.499
 2351SOL    HW1 9060  11.094   2.189   7.465
 2351SOL    HW2 9061   0.121   2.262   7.446
 2352SOL     OW 9062   1.454   2.719   8.832
 2352SOL    HW1 9063   1.417   2.786   8.773
 2352SOL    HW2 9064   1.546   2.747   8.839
 2353SOL     OW 9065   0.065   2.026   7.753
 2353SOL    HW1 9066   0.069   2.093   7.683
 2353SOL    HW2 9067   0.146   1.974   7.737
 2354SOL     OW 9068   1.211   3.207   7.556
 2354SOL    HW1 9069   1.134   3.148   7.560
 2354SOL    HW2 9070   1.238   3.212   7.649
 2355SOL     OW 9071   0.611   2.675   8.864
 2355SOL    HW1 9072   0.668   2.754   8.858
 2355SOL    HW2 9073   0.680   2.609   8.885
 2356SOL     OW 9074   1.512   3.632   8.406
 2356SOL    HW1 9075   1.543   3.691   8.337
 2356SOL    HW2 9076   1.591   3.620   8.460
 2357SOL     OW 9077   0.722   2.407   9.156
 2357SOL    HW1 9078   0.768   2.472   9.212
 2357SOL    HW2 9079   0.740   2.322   9.198
 2358SOL     OW 9080   1.458   3.041   9.069
 2358SOL    HW1 9081   1.451   3.048   9.167
 2358SOL    HW2 9082   1.552   3.064   9.054
 2359SOL     OW 9083   0.394   3.590   9.005
 2359SOL    HW1 9084   0.310   3.637   8.989
 2359SOL    HW2 9085   0.361   3.512   9.053
 2360SOL     OW 9086   1.714   2.741   8.671
 2360SOL    HW1 9087   1.679   2.651   8.654
 2360SOL    HW2 9088   1.662   2.798   8.613
 2361SOL     OW 9089   1.205   2.200   7.921
 2361SOL    HW1 9090   1.269   2.127   7.913
 2361SOL    HW2 9091   1.241   2.249   7.998
 2362SOL     OW 9092   0.612   2.609   8.100
 2362SOL    HW1 9093   0.645   2.699   8.093
 2362SOL    HW2 9094   0.541   2.608   8.035
 2363SOL     OW 9095   1.767   2.242   9.083
 2363SOL    HW1 9096   1.734   2.247   8.991
 2363SOL    HW2 9097   1.693   2.193   9.126
 2364SOL     OW 9098   1.729   2.802   8.938
 2364SOL    HW1 9099   1.753   2.896   8.947
 2364SOL    HW2 9100   1.749   2.784   8.844
 2365SOL     OW 9101   0.860   3.224   7.470
 2365SOL    HW1 9102   0.845   3.238   7.564
 2365SOL    HW2 9103   0.891   3.310   7.437
 2366SOL     OW 9104   0.661   3.679   8.330
 2366SOL    HW1 9105   0.643   3.775   8.337
 2366SOL    HW2 9106   0.739   3.667   8.386
 2367SOL     OW 9107   0.873   2.813   8.291
 2367SOL    HW1 9108   0.918   2.741   8.337
 2367SOL    HW2 9109   0.845   2.870   8.364
 2368SOL     OW 9110   1.109   2.890   7.548
 2368SOL    HW1 9111   1.072   2.926   7.466
 2368SOL    HW2 9112   1.164   2.817   7.514
 2369SOL     OW 9113   1.868   3.414   8.292
 2369SOL    HW1 9114   1.778   3.426   8.259
 2369SOL    HW2 9115   1.854   3.357   8.370
 2370SOL     OW 9116   0.229   3.179   9.304
 2370SOL    HW1 9117   0.171   3.106   9.278
 2370SOL    HW2 9118   0.226   3.173   9.401
 2371SOL     OW 9119   0.084   3.100   8.107
 2371SOL    HW1 9120   0.109   3.044   8.181
 2371SOL    HW2 9121   0.137   3.065   8.035
 2372SOL     OW 9122   0.664   3.274   9.063
 2372SOL    HW1 9123   0.590   3.217   9.092
 2372SOL    HW2 9124   0.653   3.352   9.121
 2373SOL     OW 9125   1.823   2.031   8.681
 2373SOL    HW1 9126   1.835   1.936   8.694
 2373SOL    HW2 9127   1.829   2.038   8.583
 2374SOL     OW 9128   0.427   2.286   7.967
 2374SOL    HW1 9129   0.460   2.216   7.908
 2374SOL    HW2 9130   0.381   2.237   8.037
 2375SOL     OW 9131   1.719   3.353   8.524
 2375SOL    HW1 9132   1.636   3.324   8.483
 2375SOL    HW2 9133   1.721   3.297   8.603
 2376SOL     OW 9134   0.326   2.407   8.718
 2376SOL    HW1 9135   0.383   2.343   8.763
 2376SOL    HW2 9136   0.331   2.380   8.625
 2377SOL     OW 9137   0.803   3.479   8.101
 2377SOL    HW1 9138   0.798   3.424   8.021
 2377SOL    HW2 9139   0.718   3.456   8.143
 2378SOL     OW 9140   1.440   2.113   8.547
 2378SOL    HW1 9141   1.479   2.039   8.596
 2378SOL    HW2 9142   1.384   2.157   8.615
 2379SOL     OW 9143   1.022   1.862   8.601
 2379SOL    HW1 9144   0.964   1.787   8.581
 2379SOL    HW2 9145   1.111   1.819   8.596
 2380SOL     OW 9146   0.789   3.197   7.763
 2380SOL    HW1 9147   0.753   3.107   7.757
 2380SOL    HW2 9148   0.854   3.187   7.834
 2381SOL     OW 9149   0.594   3.420   8.716
 2381SOL    HW1 9150   0.593   3.503   8.766
 2381SOL    HW2 9151   0.689   3.413   8.696
 2382SOL     OW 9152   1.337   1.911   7.643
 2382SOL    HW1 9153   1.346   1.858   7.563
 2382SOL    HW2 9154   1.249   1.879   7.674
 2383SOL     OW 9155   1.304   2.336   8.138
 2383SOL    HW1 9156   1.242   2.412   8.144
 2383SOL    HW2 9157   1.283   2.286   8.219
 2384SOL     OW 9158   1.597   2.063   8.312
 2384SOL    HW1 9159   1.525   2.078   8.375
 2384SOL    HW2 9160   1.602   2.149   8.266
 2385SOL     OW 9161   0.047   2.936   7.742
 2385SOL    HW1 9162   0.143   2.935   7.736
 2385SOL    HW2 9163   0.028   2.843   7.763
 2386SOL     OW 9164   0.881   3.496   7.771
 2386SOL    HW1 9165   0.825   3.451   7.704
 2386SOL    HW2 9166   0.822   3.568   7.795
 2387SOL     OW 9167   0.244   2.505   9.441
 2387SOL    HW1 9168   0.159   2.479   9.480
 2387SOL    HW2 9169   0.241   2.468   9.351
 2388SOL     OW 9170   0.231   2.137  10.288
 2388SOL    HW1 9171   0.267   2.117  10.377
 2388SOL    HW2 9172   0.160   2.071  10.281
 2389SOL     OW 9173   0.000   2.240   9.950
 2389SOL    HW1 9174  11.017   2.271   9.985
 2389SOL    HW2 9175  11.080   2.152   9.915
 2390SOL     OW 9176   0.585   3.146  10.467
 2390SOL    HW1 9177   0.497   3.123  10.436
 2390SOL    HW2 9178   0.588   3.242  10.457
 2391SOL     OW 9179   1.549   3.386  10.026
 2391SOL    HW1 9180   1.513   3.354  10.112
 2391SOL    HW2 9181   1.472   3.382   9.966
 2392SOL     OW 9182   1.117   2.555  10.005
 2392SOL    HW1 9183   1.161   2.641   9.991
 2392SOL    HW2 9184   1.069   2.571  10.087
 2393SOL     OW 9185   1.773   2.465   9.542
 2393SOL    HW1 9186   1.751   2.459   9.447
 2393SOL    HW2 9187   1.720   2.393   9.579
 2394SOL     OW 9188   0.782   3.013  10.338
 2394SOL    HW1 9189   0.710   3.052  10.391
 2394SOL    HW2 9190   0.805   3.090  10.284
 2395SOL     OW 9191   0.815   2.692   0.008
 2395SOL    HW1 9192   0.869   2.720   0.082
 2395SOL    HW2 9193   0.874   2.708  11.033
 2396SOL     OW 9194   0.689   2.882   9.972
 2396SOL    HW1 9195   0.749   2.861  10.046
 2396SOL    HW2 9196   0.612   2.922  10.015
 2397SOL     OW 9197   0.316   3.301  10.400
 2397SOL    HW1 9198   0.240   3.260  10.353
 2397SOL    HW2 9199   0.367   3.340  10.327
 2398SOL     OW 9200   1.468   3.362  10.661
 2398SOL    HW1 9201   1.525   3.441  10.671
 2398SOL    HW2 9202   1.403   3.376  10.731
 2399SOL     OW 9203   0.474   2.252  10.833
 2399SOL    HW1 9204   0.548   2.193  10.814
 2399SOL    HW2 9205   0.396   2.197  10.819
 2400SOL     OW 9206   1.626   2.310  10.053
 2400SOL    HW1 9207   1.558   2.346   9.995
 2400SOL    HW2 9208   1.607   2.356  10.136
 2401SOL     OW 9209   0.228   3.521   9.796
 2401SOL    HW1 9210   0.225   3.607   9.840
 2401SOL    HW2 9211   0.258   3.546   9.708
 2402SOL     OW 9212   0.230   3.257   9.829
 2402SOL    HW1 9213   0.233   3.354   9.822
 2402SOL    HW2 9214   0.156   3.244   9.891
 2403SOL     OW 9215   0.268   2.974  10.229
 2403SOL    HW1 9216   0.244   2.885  10.258
 2403SOL    HW2 9217   0.192   3.028  10.254
 2404SOL     OW 9218   0.604   3.670  10.715
 2404SOL    HW1 9219   0.533   3.651  10.778
 2404SOL    HW2 9220   0.633   3.760  10.744
 2405SOL     OW 9221   0.578   2.859   9.425
 2405SOL    HW1 9222   0.626   2.913   9.360
 2405SOL    HW2 9223   0.622   2.885   9.508
 2406SOL     OW 9224   1.599   1.974  10.793
 2406SOL    HW1 9225   1.581   2.060  10.752
 2406SOL    HW2 9226   1.556   1.982  10.879
 2407SOL     OW 9227   0.126   2.496   9.868
 2407SOL    HW1 9228   0.105   2.401   9.880
 2407SOL    HW2 9229   0.106   2.534   9.955
 2408SOL     OW 9230   1.843   3.596   9.659
 2408SOL    HW1 9231   1.916   3.582   9.722
 2408SOL    HW2 9232   1.855   3.690   9.637
 2409SOL     OW 9233  11.099   3.443   9.508
 2409SOL    HW1 9234   0.043   3.360   9.487
 2409SOL    HW2 9235   0.044   3.510   9.457
 2410SOL     OW 9236   1.682   2.771   9.919
 2410SOL    HW1 9237   1.760   2.729   9.879
 2410SOL    HW2 9238   1.656   2.833   9.849
 2411SOL     OW 9239   1.642   2.987   9.752
 2411SOL    HW1 9240   1.734   2.985   9.721
 2411SOL    HW2 9241   1.649   3.050   9.827
 2412SOL     OW 9242   0.142   2.582  10.911
 2412SOL    HW1 9243   0.236   2.603  10.925
 2412SOL    HW2 9244   0.098   2.668  10.919
 2413SOL     OW 9245   0.599   3.264  10.061
 2413SOL    HW1 9246   0.562   3.174  10.068
 2413SOL    HW2 9247   0.589   3.277   9.965
 2414SOL     OW 9248   1.282   3.105  10.748
 2414SOL    HW1 9249   1.307   3.035  10.685
 2414SOL    HW2 9250   1.335   3.082  10.825
 2415SOL     OW 9251   0.824   1.854   9.820
 2415SOL    HW1 9252   0.852   1.947   9.812
 2415SOL    HW2 9253   0.727   1.863   9.822
 2416SOL     OW 9254   0.165   2.855  10.564
 2416SOL    HW1 9255   0.251   2.814  10.543
 2416SOL    HW2 9256   0.107   2.778  10.556
 2417SOL     OW 9257   1.549   2.816   9.483
 2417SOL    HW1 9258   1.469   2.771   9.517
 2417SOL    HW2 9259   1.582   2.859   9.564
 2418SOL     OW 9260   1.222   3.661  10.914
 2418SOL    HW1 9261   1.203   3.724  10.843
 2418SOL    HW2 9262   1.224   3.575  10.866
 2419SOL     OW 9263   0.313   2.105   0.020
 2419SOL    HW1 9264   0.371   2.182   0.011
 2419SOL    HW2 9265   0.233   2.142   0.060
 2420SOL     OW 9266   1.464   3.273  10.266
 2420SOL    HW1 9267   1.403   3.293  10.340
 2420SOL    HW2 9268   1.436   3.184  10.240
 2421SOL     OW 9269   1.655   3.599   9.907
 2421SOL    HW1 9270   1.634   3.557   9.823
 2421SOL    HW2 9271   1.629   3.529   9.969
 2422SOL     OW 9272   0.588   2.582   9.580
 2422SOL    HW1 9273   0.596   2.670   9.541
 2422SOL    HW2 9274   0.517   2.594   9.645
 2423SOL     OW 9275   1.281   2.199  10.223
 2423SOL    HW1 9276   1.190   2.171  10.243
 2423SOL    HW2 9277   1.329   2.166  10.301
 2424SOL     OW 9278   1.570   3.507   9.625
 2424SOL    HW1 9279   1.663   3.536   9.623
 2424SOL    HW2 9280   1.555   3.490   9.530
 2425SOL     OW 9281   0.777   2.502  10.771
 2425SOL    HW1 9282   0.755   2.465  10.859
 2425SOL    HW2 9283   0.751   2.429  10.711
 2426SOL     OW 9284   0.967   2.731  10.887
 2426SOL    HW1 9285   1.010   2.655  10.844
 2426SOL    HW2 9286   0.906   2.762  10.818
 2427SOL     OW 9287   0.971   2.287  10.535
 2427SOL    HW1 9288   0.894   2.279  10.592
 2427SOL    HW2 9289   0.967   2.208  10.481
 2428SOL     OW 9290   1.044   2.535   9.717
 2428SOL    HW1 9291   1.061   2.558   9.809
 2428SOL    HW2 9292   0.958   2.489   9.723
 2429SOL     OW 9293   0.080   2.664  10.073
 2429SOL    HW1 9294   0.161   2.647  10.124
 2429SOL    HW2 9295   0.051   2.748  10.114
 2430SOL     OW 9296   0.116   3.687  10.903
 2430SOL    HW1 9297   0.108   3.656  10.994
 2430SOL    HW2 9298   0.025   3.689  10.872
 2431SOL     OW 9299   0.887   2.253   9.511
 2431SOL    HW1 9300   0.932   2.303   9.442
 2431SOL    HW2 9301   0.905   2.162   9.484
 2432SOL     OW 9302   1.358   3.015   9.877
 2432SOL    HW1 9303   1.434   3.003   9.819
 2432SOL    HW2 9304   1.304   3.078   9.826
 2433SOL     OW 9305   0.592   2.067  10.204
 2433SOL    HW1 9306   0.593   2.072  10.302
 2433SOL    HW2 9307   0.574   2.160  10.180
 2434SOL     OW 9308   0.980   3.303   9.786
 2434SOL    HW1 9309   0.939   3.367   9.725
 2434SOL    HW2 9310   0.987   3.355   9.867
 2435SOL     OW 9311   0.373   3.678  10.168
 2435SOL    HW1 9312   0.414   3.592  10.189
 2435SOL    HW2 9313   0.449   3.738  10.173
 2436SOL     OW 9314   1.809   2.906  10.173
 2436SOL    HW1 9315   1.750   2.888  10.099
 2436SOL    HW2 9316   1.748   2.909  10.249
 2437SOL     OW 9317   1.234   3.421  10.799
 2437SOL    HW1 9318   1.216   3.350  10.861
 2437SOL    HW2 9319   1.175   3.394  10.726
 2438SOL     OW 9320   0.322   2.805   9.564
 2438SOL    HW1 9321   0.390   2.835   9.501
 2438SOL    HW2 9322   0.298   2.718   9.529
 2439SOL     OW 9323   1.476   2.625  10.037
 2439SOL    HW1 9324   1.491   2.586  10.124
 2439SOL    HW2 9325   1.560   2.671  10.019
 2440SOL     OW 9326   0.428   3.138  11.046
 2440SOL    HW1 9327   0.433   3.096  10.960
 2440SOL    HW2 9328   0.398   3.065   0.001
 2441SOL     OW 9329   1.092   3.641   9.548
 2441SOL    HW1 9330   1.023   3.589   9.593
 2441SOL    HW2 9331   1.115   3.584   9.473
 2442SOL     OW 9332   0.209   2.153  10.799
 2442SOL    HW1 9333   0.123   2.196  10.811
 2442SOL    HW2 9334   0.200   2.076  10.857
 2443SOL     OW 9335   1.621   3.222   9.403
 2443SOL    HW1 9336   1.572   3.305   9.385
 2443SOL    HW2 9337   1.561   3.155   9.367
 2444SOL     OW 9338   0.469   3.560   9.638
 2444SOL    HW1 9339   0.504   3.629   9.698
 2444SOL    HW2 9340   0.540   3.550   9.573
 2445SOL     OW 9341   1.392   1.975   9.752
 2445SOL    HW1 9342   1.386   1.934   9.665
 2445SOL    HW2 9343   1.488   1.986   9.763
 2446SOL     OW 9344   0.236   3.623  10.537
 2446SOL    HW1 9345   0.320   3.669  10.539
 2446SOL    HW2 9346   0.216   3.618  10.442
 2447SOL     OW 9347   0.952   3.567  10.194
 2447SOL    HW1 9348   1.037   3.520  10.198
 2447SOL    HW2 9349   0.908   3.516  10.123
 2448SOL     OW 9350   0.403   2.559   9.787
 2448SOL    HW1 9351   0.425   2.464   9.798
 2448SOL    HW2 9352   0.309   2.558   9.813
 2449SOL     OW 9353   0.616   1.992   9.405
 2449SOL    HW1 9354   0.692   1.935   9.423
 2449SOL    HW2 9355   0.571   1.941   9.334
 2450SOL     OW 9356   0.758   2.094  11.023
 2450SOL    HW1 9357   0.852   2.110  11.041
 2450SOL    HW2 9358   0.713   2.138  11.097
 2451SOL     OW 9359   0.873   3.397  10.516
 2451SOL    HW1 9360   0.872   3.368  10.423
 2451SOL    HW2 9361   0.945   3.344  10.555
 2452SOL     OW 9362   1.337   2.453  10.739
 2452SOL    HW1 9363   1.382   2.411  10.813
 2452SOL    HW2 9364   1.389   2.534  10.725
 2453SOL     OW 9365   0.819   3.268  10.253
 2453SOL    HW1 9366   0.907   3.257  10.211
 2453SOL    HW2 9367   0.760   3.270  10.176
 2454SOL     OW 9368   0.951   2.383  10.216
 2454SOL    HW1 9369   0.926   2.367  10.122
 2454SOL    HW2 9370   0.965   2.292  10.248
 2455SOL     OW 9371   0.559   1.904   9.808
 2455SOL    HW1 9372   0.475   1.906   9.857
 2455SOL    HW2 9373   0.551   1.986   9.755
 2456SOL     OW 9374   1.446   3.033   9.333
 2456SOL    HW1 9375   1.472   2.958   9.389
 2456SOL    HW2 9376   1.360   3.059   9.369
 2457SOL     OW 9377   0.284   1.907   9.513
 2457SOL    HW1 9378   0.347   1.972   9.479
 2457SOL    HW2 9379   0.344   1.844   9.559
 2458SOL     OW 9380   0.933   2.113   9.795
 2458SOL    HW1 9381   0.908   2.166   9.718
 2458SOL    HW2 9382   1.029   2.127   9.797
 2459SOL     OW 9383   1.085   2.529  10.748
 2459SOL    HW1 9384   1.033   2.448  10.752
 2459SOL    HW2 9385   1.176   2.495  10.748
 2460SOL     OW 9386   1.213   3.436  10.120
 2460SOL    HW1 9387   1.218   3.490  10.039
 2460SOL    HW2 9388   1.290   3.465  10.169
 2461SOL     OW 9389   0.454   3.020  10.037
 2461SOL    HW1 9390   0.381   3.002  10.100
 2461SOL    HW2 9391   0.416   2.992   9.951
 2462SOL     OW 9392   1.244   3.666   9.924
 2462SOL    HW1 9393   1.288   3.734   9.869
 2462SOL    HW2 9394   1.194   3.720   9.987
 2463SOL     OW 9395   1.061   2.397   9.330
 2463SOL    HW1 9396   1.011   2.479   9.316
 2463SOL    HW2 9397   1.131   2.422   9.393
 2464SOL     OW 9398   0.089   2.463  10.674
 2464SOL    HW1 9399   0.182   2.441  10.656
 2464SOL    HW2 9400   0.095   2.504  10.762
 2465SOL     OW 9401   0.584   2.075  10.473
 2465SOL    HW1 9402   0.620   2.007  10.531
 2465SOL    HW2 9403   0.492   2.081  10.505
 2466SOL     OW 9404   0.879   2.325   9.969
 2466SOL    HW1 9405   0.829   2.373   9.901
 2466SOL    HW2 9406   0.895   2.240   9.926
 2467SOL     OW 9407   1.033   1.931  10.076
 2467SOL    HW1 9408   0.973   1.931  10.000
 2467SOL    HW2 9409   1.000   1.857  10.130
 2468SOL     OW 9410   1.415   3.017  10.200
 2468SOL    HW1 9411   1.343   2.954  10.215
 2468SOL    HW2 9412   1.423   3.013  10.103
 2469SOL     OW 9413   1.507   2.433  10.274
 2469SOL    HW1 9414   1.439   2.368  10.297
 2469SOL    HW2 9415   1.556   2.443  10.358
 2470SOL     OW 9416   1.840   2.683   9.701
 2470SOL    HW1 9417   1.897   2.628   9.759
 2470SOL    HW2 9418   1.822   2.621   9.629
 2471SOL     OW 9419   0.490   3.268   9.458
 2471SOL    HW1 9420   0.414   3.250   9.516
 2471SOL    HW2 9421   0.455   3.242   9.372
 2472SOL     OW 9422   1.675   3.146   9.969
 2472SOL    HW1 9423   1.772   3.152   9.978
 2472SOL    HW2 9424   1.643   3.235   9.991
 2473SOL     OW 9425   1.413   2.456   9.373
 2473SOL    HW1 9426   1.364   2.429   9.454
 2473SOL    HW2 9427   1.499   2.415   9.388
 2474SOL     OW 9428   0.529   2.109   9.632
 2474SOL    HW1 9429   0.566   2.070   9.550
 2474SOL    HW2 9430   0.499   2.195   9.596
 2475SOL     OW 9431   1.751   3.091  10.870
 2475SOL    HW1 9432   1.845   3.069  10.883
 2475SOL    HW2 9433   1.746   3.180  10.906
 2476SOL     OW 9434   1.041   3.247  10.688
 2476SOL    HW1 9435   0.963   3.197  10.719
 2476SOL    HW2 9436   1.112   3.180  10.695
 2477SOL     OW 9437   1.119   3.100  10.422
 2477SOL    HW1 9438   1.031   3.084  10.457
 2477SOL    HW2 9439   1.099   3.140  10.335
 2478SOL     OW 9440   1.620   2.953  10.387
 2478SOL    HW1 9441   1.630   3.016  10.461
 2478SOL    HW2 9442   1.550   2.998  10.336
 2479SOL     OW 9443   0.902   1.956  10.663
 2479SOL    HW1 9444   0.945   1.926  10.581
 2479SOL    HW2 9445   0.977   1.999  10.711
 2480SOL     OW 9446   0.710   2.923   9.665
 2480SOL    HW1 9447   0.692   2.900   9.758
 2480SOL    HW2 9448   0.793   2.873   9.648
 2481SOL     OW 9449   0.389   2.693  10.568
 2481SOL    HW1 9450   0.458   2.701  10.637
 2481SOL    HW2 9451   0.371   2.597  10.572
 2482SOL     OW 9452   1.269   2.278  10.531
 2482SOL    HW1 9453   1.284   2.318  10.618
 2482SOL    HW2 9454   1.174   2.258  10.534
 2483SOL     OW 9455   0.068   3.459  10.672
 2483SOL    HW1 9456  11.092   3.483  10.620
 2483SOL    HW2 9457   0.130   3.530  10.647
 2484SOL     OW 9458   0.362   2.958   9.795
 2484SOL    HW1 9459   0.373   3.034   9.736
 2484SOL    HW2 9460   0.344   2.886   9.734
 2485SOL     OW 9461   0.542   2.414  10.161
 2485SOL    HW1 9462   0.573   2.467  10.085
 2485SOL    HW2 9463   0.605   2.440  10.230
 2486SOL     OW 9464   1.220   3.196   9.706
 2486SOL    HW1 9465   1.263   3.276   9.739
 2486SOL    HW2 9466   1.128   3.210   9.735
 2487SOL     OW 9467   1.285   3.322  10.468
 2487SOL    HW1 9468   1.343   3.321  10.547
 2487SOL    HW2 9469   1.233   3.241  10.479
 2488SOL     OW 9470   1.584   2.486   9.783
 2488SOL    HW1 9471   1.535   2.541   9.846
 2488SOL    HW2 9472   1.613   2.550   9.717
 2489SOL     OW 9473   0.426   2.576  10.918
 2489SOL    HW1 9474   0.490   2.617  10.855
 2489SOL    HW2 9475   0.443   2.482  10.905
 2490SOL     OW 9476   1.608   2.624  10.994
 2490SOL    HW1 9477   1.534   2.651  10.940
 2490SOL    HW2 9478   1.679   2.678  10.956
 2491SOL     OW 9479   0.560   2.744  10.329
 2491SOL    HW1 9480   0.609   2.827  10.334
 2491SOL    HW2 9481   0.522   2.736  10.418
 2492SOL     OW 9482   1.341   2.713  10.343
 2492SOL    HW1 9483   1.262   2.677  10.300
 2492SOL    HW2 9484   1.401   2.638  10.344
 2493SOL     OW 9485   1.230   2.380   9.573
 2493SOL    HW1 9486   1.236   2.308   9.640
 2493SOL    HW2 9487   1.165   2.438   9.617
 2494SOL     OW 9488   0.310   2.067  10.535
 2494SOL    HW1 9489   0.258   2.106  10.608
 2494SOL    HW2 9490   0.298   1.971  10.550
 2495SOL     OW 9491   0.078   3.182  10.602
 2495SOL    HW1 9492   0.118   3.127  10.670
 2495SOL    HW2 9493   0.071   3.269  10.644
 2496SOL     OW 9494   0.727   2.503  10.346
 2496SOL    HW1 9495   0.808   2.482  10.296
 2496SOL    HW2 9496   0.701   2.591  10.314
 2497SOL     OW 9497   0.283   1.908   9.915
 2497SOL    HW1 9498   0.274   2.001   9.943
 2497SOL    HW2 9499   0.311   1.867   9.999
 2498SOL     OW 9500   1.594   2.242   9.658
 2498SOL    HW1 9501   1.626   2.174   9.720
 2498SOL    HW2 9502   1.588   2.321   9.716
 2499SOL     OW 9503   1.044   2.626  10.278
 2499SOL    HW1 9504   1.027   2.644  10.372
 2499SOL    HW2 9505   1.023   2.530  10.270
 2500SOL     OW 9506   0.984   3.407  10.968
 2500SOL    HW1 9507   0.964   3.475  10.900
 2500SOL    HW2 9508   0.966   3.326  10.918
 2501SOL     OW 9509   1.854   3.363  10.902
 2501SOL    HW1 9510   1.870   3.387  10.810
 2501SOL    HW2 9511   1.938   3.383  10.944
 2502SOL     OW 9512   0.377   2.773  11.083
 2502SOL    HW1 9513   0.456   2.784   0.036
 2502SOL    HW2 9514   0.401   2.692  11.032
 2503SOL     OW 9515   1.516   2.119   9.434
 2503SOL    HW1 9516   1.441   2.065   9.463
 2503SOL    HW2 9517   1.548   2.159   9.518
 2504SOL     OW 9518   1.305   2.700   9.341
 2504SOL    HW1 9519   1.352   2.615   9.350
 2504SOL    HW2 9520   1.329   2.725   9.249
 2505SOL     OW 9521   1.057   3.218  10.161
 2505SOL    HW1 9522   1.070   3.146  10.096
 2505SOL    HW2 9523   1.124   3.285  10.138
 2506SOL     OW 9524   0.275   2.684  10.270
 2506SOL    HW1 9525   0.368   2.709  10.257
 2506SOL    HW2 9526   0.285   2.597  10.313
 2507SOL     OW 9527   0.325   2.391  10.308
 2507SOL    HW1 9528   0.294   2.303  10.282
 2507SOL    HW2 9529   0.401   2.404  10.248
 2508SOL     OW 9530  11.099   3.165   9.483
 2508SOL    HW1 9531  11.014   3.204   9.456
 2508SOL    HW2 9532  11.070   3.092   9.541
 2509SOL     OW 9533   0.133   3.662  10.278
 2509SOL    HW1 9534   0.095   3.592  10.220
 2509SOL    HW2 9535   0.215   3.682  10.229
 2510SOL     OW 9536   0.503   3.426  10.254
 2510SOL    HW1 9537   0.580   3.484  10.267
 2510SOL    HW2 9538   0.533   3.369  10.181
 2511SOL     OW 9539   0.957   2.673  10.551
 2511SOL    HW1 9540   1.028   2.628  10.603
 2511SOL    HW2 9541   0.885   2.611  10.566
 2512SOL     OW 9542   0.002   2.390  10.414
 2512SOL    HW1 9543   0.091   2.376  10.379
 2512SOL    HW2 9544   0.021   2.417  10.506
 2513SOL     OW 9545   0.791   2.422   9.705
 2513SOL    HW1 9546   0.809   2.367   9.626
 2513SOL    HW2 9547   0.713   2.473   9.677
 2514SOL     OW 9548   1.664   2.485  10.502
 2514SOL    HW1 9549   1.647   2.412  10.562
 2514SOL    HW2 9550   1.747   2.456  10.458
 2515SOL     OW 9551   0.258   3.399  11.019
 2515SOL    HW1 9552   0.192   3.438  11.080
 2515SOL    HW2 9553   0.304   3.338  11.078
 2516SOL     OW 9554   0.694   2.335  10.574
 2516SOL    HW1 9555   0.660   2.250  10.543
 2516SOL    HW2 9556   0.697   2.389  10.493
 2517SOL     OW 9557   0.909   3.551  10.751
 2517SOL    HW1 9558   0.885   3.516  10.663
 2517SOL    HW2 9559   0.906   3.648  10.739
 2518SOL     OW 9560   0.461   2.347   9.508
 2518SOL    HW1 9561   0.525   2.420   9.514
 2518SOL    HW2 9562   0.378   2.397   9.501
 2519SOL     OW 9563   0.204   3.000  10.792
 2519SOL    HW1 9564   0.177   2.945  10.868
 2519SOL    HW2 9565   0.193   2.939  10.716
 2520SOL     OW 9566   1.310   2.912  10.546
 2520SOL    HW1 9567   1.333   2.847  10.476
 2520SOL    HW2 9568   1.245   2.968  10.501
 2521SOL     OW 9569   1.315   2.719   9.609
 2521SOL    HW1 9570   1.236   2.683   9.650
 2521SOL    HW2 9571   1.294   2.717   9.513
 2522SOL     OW 9572   1.758   3.614  10.434
 2522SOL    HW1 9573   1.827   3.634  10.368
 2522SOL    HW2 9574   1.749   3.517  10.425
 2523SOL     OW 9575   1.240   3.587  10.448
 2523SOL    HW1 9576   1.328   3.607  10.411
 2523SOL    HW2 9577   1.245   3.490  10.458
 2524SOL     OW 9578   0.089   3.160  10.329
 2524SOL    HW1 9579   0.090   3.165  10.427
 2524SOL    HW2 9580   0.016   3.098  10.313
 2525SOL     OW 9581   1.676   2.001   9.799
 2525SOL    HW1 9582   1.757   1.987   9.747
 2525SOL    HW2 9583   1.673   1.919   9.854
 2526SOL     OW 9584   1.359   3.434   9.799
 2526SOL    HW1 9585   1.421   3.448   9.726
 2526SOL    HW2 9586   1.322   3.523   9.813
 2527SOL     OW 9587   1.252   2.786   9.985
 2527SOL    HW1 9588   1.333   2.734  10.003
 2527SOL    HW2 9589   1.288   2.861   9.933
 2528SOL     OW 9590   0.810   3.127  10.756
 2528SOL    HW1 9591   0.771   3.156  10.840
 2528SOL    HW2 9592   0.735   3.138  10.695
 2529SOL     OW 9593   0.671   3.471   9.468
 2529SOL    HW1 9594   0.674   3.482   9.371
 2529SOL    HW2 9595   0.616   3.391   9.475
 2530SOL     OW 9596   1.621   3.574  10.681
 2530SOL    HW1 9597   1.674   3.593  10.602
 2530SOL    HW2 9598   1.611   3.662  10.722
 2531SOL     OW 9599   1.852   2.036  10.265
 2531SOL    HW1 9600   1.867   1.942  10.244
 2531SOL    HW2 9601   1.760   2.051  10.234
 2532SOL     OW 9602   0.265   2.157  10.012
 2532SOL    HW1 9603   0.171   2.184  10.001
 2532SOL    HW2 9604   0.273   2.155  10.109
 2533SOL     OW 9605   1.178   3.483   9.339
 2533SOL    HW1 9606   1.190   3.387   9.354
 2533SOL    HW2 9607   1.114   3.486   9.266
 2534SOL     OW 9608   0.797   2.853  10.690
 2534SOL    HW1 9609   0.853   2.813  10.622
 2534SOL    HW2 9610   0.841   2.937  10.712
 2535SOL     OW 9611   0.923   2.782   9.584
 2535SOL    HW1 9612   0.998   2.816   9.532
 2535SOL    HW2 9613   0.956   2.698   9.620
 2536SOL     OW 9614   1.497   3.453   9.350
 2536SOL    HW1 9615   1.405   3.480   9.343
 2536SOL    HW2 9616   1.531   3.469   9.260
 2537SOL     OW 9617   0.379   3.207  10.775
 2537SOL    HW1 9618   0.348   3.240  10.860
 2537SOL    HW2 9619   0.332   3.121  10.768
 2538SOL     OW 9620   1.617   3.161  10.579
 2538SOL    HW1 9621   1.662   3.136  10.661
 2538SOL    HW2 9622   1.553   3.227  10.613
 2539SOL     OW 9623   1.033   2.985  10.023
 2539SOL    HW1 9624   0.962   2.930  10.058
 2539SOL    HW2 9625   1.096   2.919   9.992
 2540SOL     OW 9626   1.027   2.092  10.301
 2540SOL    HW1 9627   1.022   2.050  10.213
 2540SOL    HW2 9628   1.031   2.014  10.359
 2541SOL     OW 9629   0.589   3.316   9.784
 2541SOL    HW1 9630   0.645   3.287   9.710
 2541SOL    HW2 9631   0.525   3.375   9.741
 2542SOL     OW 9632   1.707   2.245  10.693
 2542SOL    HW1 9633   1.772   2.317  10.699
 2542SOL    HW2 9634   1.750   2.185  10.629
 2543SOL     OW 9635   0.242   3.210   9.574
 2543SOL    HW1 9636   0.146   3.202   9.560
 2543SOL    HW2 9637   0.247   3.226   9.671
 2544SOL     OW 9638   0.136   2.883  11.024
 2544SOL    HW1 9639   0.068   2.854  11.086
 2544SOL    HW2 9640   0.218   2.841  11.059
 2545SOL     OW 9641   0.683   2.056  10.772
 2545SOL    HW1 9642   0.769   2.034  10.729
 2545SOL    HW2 9643   0.711   2.070  10.865
 2546SOL     OW 9644   0.095   2.195   9.353
 2546SOL    HW1 9645   0.000   2.195   9.339
 2546SOL    HW2 9646   0.123   2.270   9.298
 2547SOL     OW 9647   1.460   2.708  10.736
 2547SOL    HW1 9648   1.403   2.770  10.688
 2547SOL    HW2 9649   1.547   2.730  10.697
 2548SOL     OW 9650   0.064   2.032   9.620
 2548SOL    HW1 9651   0.065   2.103   9.555
 2548SOL    HW2 9652   0.141   1.979   9.594
 2549SOL     OW 9653   1.209   3.210   9.431
 2549SOL    HW1 9654   1.128   3.159   9.433
 2549SOL    HW2 9655   1.233   3.211   9.526
 2550SOL     OW 9656   0.594   2.690  10.735
 2550SOL    HW1 9657   0.658   2.763  10.727
 2550SOL    HW2 9658   0.658   2.615  10.743
 2551SOL     OW 9659   1.511   3.613  10.297
 2551SOL    HW1 9660   1.547   3.655  10.218
 2551SOL    HW2 9661   1.587   3.614  10.357
 2552SOL     OW 9662   0.715   2.422  11.014
 2552SOL    HW1 9663   0.729   2.500  11.069
 2552SOL    HW2 9664   0.781   2.360  11.046
 2553SOL     OW 9665   0.376   3.555  10.832
 2553SOL    HW1 9666   0.311   3.627  10.834
 2553SOL    HW2 9667   0.340   3.499  10.903
 2554SOL     OW 9668   1.681   2.753  10.574
 2554SOL    HW1 9669   1.676   2.661  10.542
 2554SOL    HW2 9670   1.656   2.805  10.496
 2555SOL     OW 9671   1.206   2.190   9.777
 2555SOL    HW1 9672   1.272   2.119   9.771
 2555SOL    HW2 9673   1.237   2.240   9.856
 2556SOL     OW 9674   0.607   2.605   9.963
 2556SOL    HW1 9675   0.634   2.698   9.962
 2556SOL    HW2 9676   0.534   2.603   9.899
 2557SOL     OW 9677   1.780   2.159  10.949
 2557SOL    HW1 9678   1.750   2.175  10.858
 2557SOL    HW2 9679   1.697   2.168  10.998
 2558SOL     OW 9680   1.756   2.805  10.831
 2558SOL    HW1 9681   1.744   2.901  10.841
 2558SOL    HW2 9682   1.750   2.792  10.735
 2559SOL     OW 9683   0.854   3.230   9.341
 2559SOL    HW1 9684   0.825   3.242   9.433
 2559SOL    HW2 9685   0.884   3.318   9.313
 2560SOL     OW 9686   0.664   3.659  10.242
 2560SOL    HW1 9687   0.649   3.754  10.228
 2560SOL    HW2 9688   0.756   3.647  10.216
 2561SOL     OW 9689   0.868   2.812  10.169
 2561SOL    HW1 9690   0.920   2.741  10.209
 2561SOL    HW2 9691   0.853   2.874  10.242
 2562SOL     OW 9692   1.105   2.864   9.404
 2562SOL    HW1 9693   1.069   2.910   9.326
 2562SOL    HW2 9694   1.170   2.802   9.366
 2563SOL     OW 9695   1.844   3.415  10.167
 2563SOL    HW1 9696   1.772   3.400  10.106
 2563SOL    HW2 9697   1.820   3.363  10.245
 2564SOL     OW 9698   0.073   3.107   9.991
 2564SOL    HW1 9699   0.069   3.040  10.061
 2564SOL    HW2 9700   0.150   3.079   9.941
 2565SOL     OW 9701   0.651   3.263  10.929
 2565SOL    HW1 9702   0.567   3.229  10.965
 2565SOL    HW2 9703   0.639   3.358  10.931
 2566SOL     OW 9704   1.816   2.061  10.532
 2566SOL    HW1 9705   1.816   1.966  10.547
 2566SOL    HW2 9706   1.826   2.068  10.436
 2567SOL     OW 9707   0.426   2.293   9.835
 2567SOL    HW1 9708   0.465   2.225   9.778
 2567SOL    HW2 9709   0.379   2.242   9.903
 2568SOL     OW 9710   1.721   3.349  10.409
 2568SOL    HW1 9711   1.638   3.321  10.367
 2568SOL    HW2 9712   1.719   3.293  10.489
 2569SOL     OW 9713   0.346   2.419  10.587
 2569SOL    HW1 9714   0.400   2.360  10.641
 2569SOL    HW2 9715   0.347   2.378  10.498
 2570SOL     OW 9716   0.825   3.466   9.984
 2570SOL    HW1 9717   0.811   3.534   9.916
 2570SOL    HW2 9718   0.746   3.410   9.977
 2571SOL     OW 9719   1.429   2.093  10.430
 2571SOL    HW1 9720   1.455   2.025  10.493
 2571SOL    HW2 9721   1.371   2.151  10.485
 2572SOL     OW 9722   1.006   1.846  10.447
 2572SOL    HW1 9723   0.959   1.766  10.418
 2572SOL    HW2 9724   1.097   1.811  10.460
 2573SOL     OW 9725   0.787   3.199   9.614
 2573SOL    HW1 9726   0.756   3.107   9.622
 2573SOL    HW2 9727   0.857   3.202   9.680
 2574SOL     OW 9728   0.601   3.430  10.591
 2574SOL    HW1 9729   0.613   3.515  10.638
 2574SOL    HW2 9730   0.691   3.416  10.556
 2575SOL     OW 9731   1.321   1.920   9.478
 2575SOL    HW1 9732   1.334   1.847   9.417
 2575SOL    HW2 9733   1.234   1.897   9.517
 2576SOL     OW 9734   1.275   2.334   9.987
 2576SOL    HW1 9735   1.217   2.412   9.993
 2576SOL    HW2 9736   1.271   2.296  10.076
 2577SOL     OW 9737   1.597   2.065  10.190
 2577SOL    HW1 9738   1.524   2.083  10.252
 2577SOL    HW2 9739   1.597   2.143  10.133
 2578SOL     OW 9740   0.015   2.919   9.638
 2578SOL    HW1 9741   0.104   2.939   9.609
 2578SOL    HW2 9742   0.018   2.821   9.644
 2579SOL     OW 9743   0.880   3.508   9.634
 2579SOL    HW1 9744   0.804   3.488   9.575
 2579SOL    HW2 9745   0.852   3.587   9.682
 2580SOL     OW 9746   0.237   4.354   0.122
 2580SOL    HW1 9747   0.148   4.333   0.157
 2580SOL    HW2 9748   0.229   4.334   0.028
 2581SOL     OW 9749   0.230   4.018   1.008
 2581SOL    HW1 9750   0.267   3.993   1.096
 2581SOL    HW2 9751   0.157   3.955   1.003
 2582SOL     OW 9752  11.081   4.104   0.644
 2582SOL    HW1 9753  11.030   4.111   0.725
 2582SOL    HW2 9754  11.055   4.015   0.612
 2583SOL     OW 9755   0.576   5.025   1.173
 2583SOL    HW1 9756   0.492   5.028   1.124
 2583SOL    HW2 9757   0.578   5.113   1.212
 2584SOL     OW 9758   1.544   5.238   0.711
 2584SOL    HW1 9759   1.507   5.211   0.798
 2584SOL    HW2 9760   1.469   5.232   0.650
 2585SOL     OW 9761   1.119   4.419   0.701
 2585SOL    HW1 9762   1.166   4.502   0.680
 2585SOL    HW2 9763   1.087   4.437   0.791
 2586SOL     OW 9764   1.776   4.326   0.214
 2586SOL    HW1 9765   1.722   4.359   0.142
 2586SOL    HW2 9766   1.717   4.262   0.258
 2587SOL     OW 9767   0.760   4.885   1.034
 2587SOL    HW1 9768   0.691   4.928   1.088
 2587SOL    HW2 9769   0.800   4.964   0.992
 2588SOL     OW 9770   0.897   4.472   1.798
 2588SOL    HW1 9771   0.865   4.535   1.864
 2588SOL    HW2 9772   0.921   4.528   1.722
 2589SOL     OW 9773   0.662   4.724   0.631
 2589SOL    HW1 9774   0.737   4.712   0.692
 2589SOL    HW2 9775   0.600   4.776   0.685
 2590SOL     OW 9776   0.702   4.883   1.800
 2590SOL    HW1 9777   0.750   4.965   1.820
 2590SOL    HW2 9778   0.617   4.915   1.766
 2591SOL     OW 9779   0.327   5.139   1.076
 2591SOL    HW1 9780   0.251   5.097   1.033
 2591SOL    HW2 9781   0.369   5.190   1.003
 2592SOL     OW 9782   1.468   5.216   1.380
 2592SOL    HW1 9783   1.521   5.298   1.382
 2592SOL    HW2 9784   1.391   5.241   1.435
 2593SOL     OW 9785   0.432   4.112   1.533
 2593SOL    HW1 9786   0.509   4.054   1.520
 2593SOL    HW2 9787   0.357   4.053   1.515
 2594SOL     OW 9788   1.622   4.179   0.742
 2594SOL    HW1 9789   1.537   4.193   0.696
 2594SOL    HW2 9790   1.626   4.256   0.798
 2595SOL     OW 9791   0.249   5.409   0.509
 2595SOL    HW1 9792   0.256   5.500   0.541
 2595SOL    HW2 9793   0.277   5.419   0.417
 2596SOL     OW 9794   1.149   5.064   1.669
 2596SOL    HW1 9795   1.160   5.073   1.764
 2596SOL    HW2 9796   1.093   4.984   1.666
 2597SOL     OW 9797   0.233   5.132   0.528
 2597SOL    HW1 9798   0.234   5.230   0.528
 2597SOL    HW2 9799   0.162   5.112   0.591
 2598SOL     OW 9800   0.264   4.833   0.906
 2598SOL    HW1 9801   0.262   4.748   0.954
 2598SOL    HW2 9802   0.193   4.882   0.951
 2599SOL     OW 9803   0.608   5.533   1.406
 2599SOL    HW1 9804   0.538   5.502   1.466
 2599SOL    HW2 9805   0.634   5.619   1.446
 2600SOL     OW 9806   0.601   4.719   0.140
 2600SOL    HW1 9807   0.639   4.783   0.079
 2600SOL    HW2 9808   0.639   4.747   0.225
 2601SOL     OW 9809   1.615   3.839   1.500
 2601SOL    HW1 9810   1.620   3.916   1.442
 2601SOL    HW2 9811   1.619   3.879   1.587
 2602SOL     OW 9812   0.122   4.356   0.556
 2602SOL    HW1 9813   0.094   4.263   0.560
 2602SOL    HW2 9814   0.095   4.390   0.643
 2603SOL     OW 9815   1.841   5.462   0.369
 2603SOL    HW1 9816   1.906   5.441   0.439
 2603SOL    HW2 9817   1.866   5.552   0.345
 2604SOL     OW 9818   0.058   5.327   0.121
 2604SOL    HW1 9819   0.036   5.239   0.154
 2604SOL    HW2 9820   0.069   5.381   0.200
 2605SOL     OW 9821   1.708   4.634   0.622
 2605SOL    HW1 9822   1.794   4.605   0.589
 2605SOL    HW2 9823   1.681   4.699   0.555
 2606SOL     OW 9824   1.643   4.839   0.452
 2606SOL    HW1 9825   1.710   4.873   0.390
 2606SOL    HW2 9826   1.653   4.902   0.527
 2607SOL     OW 9827   0.128   4.478   1.589
 2607SOL    HW1 9828   0.225   4.486   1.590
 2607SOL    HW2 9829   0.104   4.547   1.653
 2608SOL     OW 9830   0.598   5.127   0.750
 2608SOL    HW1 9831   0.558   5.038   0.756
 2608SOL    HW2 9832   0.591   5.142   0.653
 2609SOL     OW 9833   1.276   4.934   1.422
 2609SOL    HW1 9834   1.310   4.878   1.350
 2609SOL    HW2 9835   1.262   4.871   1.493
 2610SOL     OW 9836   0.838   3.716   0.481
 2610SOL    HW1 9837   0.864   3.810   0.486
 2610SOL    HW2 9838   0.742   3.722   0.493
 2611SOL     OW 9839   0.167   4.695   1.251
 2611SOL    HW1 9840   0.261   4.671   1.238
 2611SOL    HW2 9841   0.124   4.612   1.225
 2612SOL     OW 9842   1.534   4.704   0.214
 2612SOL    HW1 9843   1.455   4.655   0.244
 2612SOL    HW2 9844   1.570   4.739   0.296
 2613SOL     OW 9845   1.182   5.525   1.618
 2613SOL    HW1 9846   1.196   5.591   1.550
 2613SOL    HW2 9847   1.199   5.442   1.570
 2614SOL     OW 9848   0.327   3.954   1.807
 2614SOL    HW1 9849   0.379   4.030   1.835
 2614SOL    HW2 9850   0.239   3.976   1.841
 2615SOL     OW 9851   1.467   5.151   0.959
 2615SOL    HW1 9852   1.404   5.169   1.031
 2615SOL    HW2 9853   1.441   5.060   0.933
 2616SOL     OW 9854   1.658   5.465   0.616
 2616SOL    HW1 9855   1.663   5.429   0.526
 2616SOL    HW2 9856   1.622   5.388   0.664
 2617SOL     OW 9857   0.561   4.462   0.251
 2617SOL    HW1 9858   0.618   4.528   0.208
 2617SOL    HW2 9859   0.580   4.471   0.345
 2618SOL     OW 9860   1.273   4.057   0.919
 2618SOL    HW1 9861   1.185   4.025   0.947
 2618SOL    HW2 9862   1.333   4.013   0.984
 2619SOL     OW 9863   1.567   5.387   0.321
 2619SOL    HW1 9864   1.661   5.410   0.323
 2619SOL    HW2 9865   1.556   5.362   0.228
 2620SOL     OW 9866   0.788   4.351   1.467
 2620SOL    HW1 9867   0.775   4.311   1.556
 2620SOL    HW2 9868   0.754   4.282   1.407
 2621SOL     OW 9869   1.401   4.212   1.673
 2621SOL    HW1 9870   1.405   4.259   1.759
 2621SOL    HW2 9871   1.459   4.136   1.690
 2622SOL     OW 9872   0.975   4.617   1.575
 2622SOL    HW1 9873   1.010   4.533   1.539
 2622SOL    HW2 9874   0.917   4.645   1.501
 2623SOL     OW 9875   0.978   4.120   1.230
 2623SOL    HW1 9876   0.889   4.137   1.263
 2623SOL    HW2 9877   0.965   4.053   1.163
 2624SOL     OW 9878   1.041   4.405   0.414
 2624SOL    HW1 9879   1.054   4.419   0.510
 2624SOL    HW2 9880   0.957   4.354   0.413
 2625SOL     OW 9881   0.095   4.529   0.768
 2625SOL    HW1 9882   0.170   4.511   0.827
 2625SOL    HW2 9883   0.049   4.598   0.818
 2626SOL     OW 9884   0.130   5.526   1.564
 2626SOL    HW1 9885   0.142   5.514   1.661
 2626SOL    HW2 9886   0.056   5.588   1.561
 2627SOL     OW 9887   0.867   4.094   0.203
 2627SOL    HW1 9888   0.916   4.146   0.135
 2627SOL    HW2 9889   0.887   4.003   0.177
 2628SOL     OW 9890   1.722   4.323   1.834
 2628SOL    HW1 9891   1.686   4.396   1.781
 2628SOL    HW2 9892   1.752   4.261   1.766
 2629SOL     OW 9893   1.360   4.884   0.569
 2629SOL    HW1 9894   1.445   4.880   0.522
 2629SOL    HW2 9895   1.309   4.945   0.513
 2630SOL     OW 9896   0.589   3.932   0.898
 2630SOL    HW1 9897   0.584   3.939   0.996
 2630SOL    HW2 9898   0.570   4.023   0.870
 2631SOL     OW 9899   0.996   5.161   0.499
 2631SOL    HW1 9900   0.966   5.234   0.441
 2631SOL    HW2 9901   1.000   5.205   0.585
 2632SOL     OW 9902   0.368   5.552   0.857
 2632SOL    HW1 9903   0.401   5.460   0.862
 2632SOL    HW2 9904   0.450   5.603   0.868
 2633SOL     OW 9905   1.807   4.777   0.892
 2633SOL    HW1 9906   1.764   4.757   0.808
 2633SOL    HW2 9907   1.735   4.768   0.956
 2634SOL     OW 9908   1.229   5.281   1.499
 2634SOL    HW1 9909   1.203   5.217   1.567
 2634SOL    HW2 9910   1.179   5.247   1.423
 2635SOL     OW 9911   1.481   4.473   0.698
 2635SOL    HW1 9912   1.471   4.453   0.792
 2635SOL    HW2 9913   1.560   4.529   0.695
 2636SOL     OW 9914   0.453   4.987   1.725
 2636SOL    HW1 9915   0.420   4.991   1.632
 2636SOL    HW2 9916   0.370   5.001   1.774
 2637SOL     OW 9917   1.087   5.488   0.215
 2637SOL    HW1 9918   1.048   5.429   0.282
 2637SOL    HW2 9919   1.124   5.424   0.150
 2638SOL     OW 9920   0.181   4.000   1.500
 2638SOL    HW1 9921   0.106   4.046   1.541
 2638SOL    HW2 9922   0.168   3.909   1.531
 2639SOL     OW 9923   1.624   5.065   0.100
 2639SOL    HW1 9924   1.580   5.149   0.077
 2639SOL    HW2 9925   1.568   4.999   0.055
 2640SOL     OW 9926   0.461   5.465   0.304
 2640SOL    HW1 9927   0.493   5.513   0.381
 2640SOL    HW2 9928   0.531   5.482   0.239
 2641SOL     OW 9929   1.392   3.830   0.448
 2641SOL    HW1 9930   1.393   3.786   0.361
 2641SOL    HW2 9931   1.485   3.852   0.462
 2642SOL     OW 9932   0.243   5.507   1.212
 2642SOL    HW1 9933   0.289   5.446   1.272
 2642SOL    HW2 9934   0.301   5.506   1.134
 2643SOL     OW 9935   0.947   5.415   0.882
 2643SOL    HW1 9936   1.036   5.377   0.885
 2643SOL    HW2 9937   0.905   5.361   0.811
 2644SOL     OW 9938   0.377   4.418   0.466
 2644SOL    HW1 9939   0.404   4.323   0.469
 2644SOL    HW2 9940   0.293   4.412   0.515
 2645SOL     OW 9941   1.541   3.989   1.731
 2645SOL    HW1 9942   1.537   3.990   1.831
 2645SOL    HW2 9943   1.483   3.914   1.713
 2646SOL     OW 9944   0.603   3.824   0.100
 2646SOL    HW1 9945   0.693   3.800   0.125
 2646SOL    HW2 9946   0.596   3.798   0.008
 2647SOL     OW 9947   0.768   3.992   1.759
 2647SOL    HW1 9948   0.846   3.932   1.764
 2647SOL    HW2 9949   0.710   3.959   1.829
 2648SOL     OW 9950   0.869   5.260   1.194
 2648SOL    HW1 9951   0.862   5.235   1.100
 2648SOL    HW2 9952   0.935   5.199   1.228
 2649SOL     OW 9953   1.323   4.319   1.436
 2649SOL    HW1 9954   1.364   4.286   1.519
 2649SOL    HW2 9955   1.381   4.393   1.411
 2650SOL     OW 9956   0.831   5.128   0.947
 2650SOL    HW1 9957   0.921   5.114   0.910
 2650SOL    HW2 9958   0.776   5.136   0.868
 2651SOL     OW 9959   0.938   4.245   0.894
 2651SOL    HW1 9960   0.920   4.222   0.800
 2651SOL    HW2 9961   0.965   4.159   0.930
 2652SOL     OW 9962   0.575   3.769   0.495
 2652SOL    HW1 9963   0.498   3.774   0.554
 2652SOL    HW2 9964   0.564   3.851   0.443
 2653SOL     OW 9965   1.438   4.884   0.022
 2653SOL    HW1 9966   1.468   4.823   0.091
 2653SOL    HW2 9967   1.361   4.928   0.061
 2654SOL     OW 9968   0.267   3.761   0.189
 2654SOL    HW1 9969   0.304   3.823   0.124
 2654SOL    HW2 9970   0.345   3.709   0.215
 2655SOL     OW 9971   0.939   3.975   0.463
 2655SOL    HW1 9972   0.926   4.019   0.378
 2655SOL    HW2 9973   1.035   3.988   0.477
 2656SOL     OW 9974   1.071   4.401   1.460
 2656SOL    HW1 9975   1.019   4.319   1.464
 2656SOL    HW2 9976   1.163   4.369   1.460
 2657SOL     OW 9977   1.219   5.306   0.809
 2657SOL    HW1 9978   1.225   5.376   0.741
 2657SOL    HW2 9979   1.301   5.323   0.858
 2658SOL     OW 9980   0.451   4.884   0.725
 2658SOL    HW1 9981   0.386   4.865   0.796
 2658SOL    HW2 9982   0.405   4.851   0.646
 2659SOL     OW 9983   1.252   5.524   0.639
 2659SOL    HW1 9984   1.300   5.590   0.586
 2659SOL    HW2 9985   1.194   5.580   0.693
 2660SOL     OW 9986   1.012   4.235   0.025
 2660SOL    HW1 9987   0.998   4.331   0.024
 2660SOL    HW2 9988   1.105   4.230   0.049
 2661SOL     OW 9989   0.067   4.321   1.373
 2661SOL    HW1 9990   0.158   4.294   1.350
 2661SOL    HW2 9991   0.081   4.376   1.453
 2662SOL     OW 9992   0.581   3.943   1.170
 2662SOL    HW1 9993   0.621   3.867   1.216
 2662SOL    HW2 9994   0.488   3.938   1.196
 2663SOL     OW 9995   0.884   4.169   0.645
 2663SOL    HW1 9996   0.833   4.230   0.591
 2663SOL    HW2 9997   0.890   4.091   0.588
 2664SOL     OW 9998   1.004   3.794   0.775
 2664SOL    HW1 9999   0.955   3.787   0.693
 2664SOL    HW210000   0.985   3.708   0.819
 2665SOL     OW10001   1.422   4.902   0.875
 2665SOL    HW110002   1.343   4.848   0.885
 2665SOL    HW210003   1.438   4.894   0.779
 2666SOL     OW10004   1.452   4.308   0.986
 2666SOL    HW110005   1.400   4.226   0.991
 2666SOL    HW210006   1.521   4.294   1.053
 2667SOL     OW10007   1.873   4.554   0.358
 2667SOL    HW110008   1.916   4.499   0.426
 2667SOL    HW210009   1.834   4.486   0.301
 2668SOL     OW10010   0.495   5.178   0.139
 2668SOL    HW110011   0.427   5.143   0.199
 2668SOL    HW210012   0.493   5.113   0.066
 2669SOL     OW10013   1.672   5.007   0.656
 2669SOL    HW110014   1.767   5.018   0.669
 2669SOL    HW210015   1.635   5.094   0.679
 2670SOL     OW10016   1.385   4.317   0.081
 2670SOL    HW110017   1.345   4.282   0.163
 2670SOL    HW210018   1.441   4.243   0.054
 2671SOL     OW10019   0.523   3.965   0.316
 2671SOL    HW110020   0.542   3.906   0.240
 2671SOL    HW210021   0.499   4.046   0.268
 2672SOL     OW10022   1.734   4.965   1.599
 2672SOL    HW110023   1.813   4.908   1.596
 2672SOL    HW210024   1.775   5.052   1.586
 2673SOL     OW10025   1.069   5.096   1.349
 2673SOL    HW110026   0.990   5.054   1.387
 2673SOL    HW210027   1.140   5.038   1.383
 2674SOL     OW10028   1.605   5.309   1.642
 2674SOL    HW110029   1.604   5.353   1.556
 2674SOL    HW210030   1.695   5.272   1.643
 2675SOL     OW10031   1.121   4.950   1.094
 2675SOL    HW110032   1.049   4.971   1.154
 2675SOL    HW210033   1.092   4.989   1.010
 2676SOL     OW10034   1.592   4.812   1.068
 2676SOL    HW110035   1.603   4.879   1.138
 2676SOL    HW210036   1.535   4.859   1.003
 2677SOL     OW10037   0.928   3.817   1.405
 2677SOL    HW110038   0.954   3.802   1.312
 2677SOL    HW210039   1.008   3.862   1.440
 2678SOL     OW10040   0.998   4.839   1.739
 2678SOL    HW110041   0.905   4.859   1.757
 2678SOL    HW210042   0.994   4.766   1.676
 2679SOL     OW10043   0.714   4.778   0.380
 2679SOL    HW110044   0.701   4.763   0.476
 2679SOL    HW210045   0.801   4.735   0.364
 2680SOL     OW10046   0.397   4.553   1.247
 2680SOL    HW110047   0.468   4.558   1.314
 2680SOL    HW210048   0.375   4.458   1.249
 2681SOL     OW10049   1.282   4.108   1.265
 2681SOL    HW110050   1.300   4.185   1.323
 2681SOL    HW210051   1.190   4.123   1.239
 2682SOL     OW10052   0.065   5.319   1.343
 2682SOL    HW110053   0.060   5.388   1.411
 2682SOL    HW210054   0.158   5.290   1.353
 2683SOL     OW10055   0.370   4.816   0.480
 2683SOL    HW110056   0.373   4.909   0.453
 2683SOL    HW210057   0.460   4.785   0.462
 2684SOL     OW10058   0.562   4.264   0.862
 2684SOL    HW110059   0.585   4.330   0.794
 2684SOL    HW210060   0.618   4.289   0.937
 2685SOL     OW10061   1.222   5.066   0.395
 2685SOL    HW110062   1.271   5.145   0.424
 2685SOL    HW210063   1.133   5.085   0.429
 2686SOL     OW10064   1.299   5.191   1.163
 2686SOL    HW110065   1.356   5.182   1.242
 2686SOL    HW210066   1.233   5.121   1.177
 2687SOL     OW10067   1.568   4.337   0.459
 2687SOL    HW110068   1.532   4.377   0.540
 2687SOL    HW210069   1.590   4.414   0.407
 2688SOL     OW10070   0.327   5.257   1.312
 2688SOL    HW110071   0.327   5.199   1.232
 2688SOL    HW210072   0.422   5.276   1.319
 2689SOL     OW10073   0.418   4.460   1.609
 2689SOL    HW110074   0.484   4.499   1.550
 2689SOL    HW210075   0.444   4.367   1.610
 2690SOL     OW10076   1.616   4.515   1.670
 2690SOL    HW110077   1.546   4.491   1.609
 2690SOL    HW210078   1.674   4.566   1.610
 2691SOL     OW10079   0.991   3.836   1.753
 2691SOL    HW110080   1.060   3.903   1.742
 2691SOL    HW210081   1.035   3.758   1.715
 2692SOL     OW10082   0.496   3.746   1.757
 2692SOL    HW110083   0.458   3.687   1.689
 2692SOL    HW210084   0.427   3.815   1.763
 2693SOL     OW10085   0.594   4.616   1.029
 2693SOL    HW110086   0.628   4.706   1.042
 2693SOL    HW210087   0.547   4.597   1.112
 2694SOL     OW10088   1.351   4.571   1.021
 2694SOL    HW110089   1.261   4.542   0.999
 2694SOL    HW210090   1.398   4.486   1.021
 2695SOL     OW10091   1.228   4.227   0.282
 2695SOL    HW110092   1.233   4.155   0.347
 2695SOL    HW210093   1.167   4.288   0.326
 2696SOL     OW10094   0.310   3.929   1.243
 2696SOL    HW110095   0.244   3.952   1.310
 2696SOL    HW210096   0.298   3.831   1.238
 2697SOL     OW10097   0.058   5.026   1.288
 2697SOL    HW110098   0.097   4.965   1.353
 2697SOL    HW210099   0.047   5.109   1.336
 2698SOL     OW10100   0.733   4.362   1.063
 2698SOL    HW110101   0.809   4.339   1.006
 2698SOL    HW210102   0.709   4.453   1.037
 2699SOL     OW10103   1.752   4.670   1.853
 2699SOL    HW110104   1.702   4.610   1.796
 2699SOL    HW210105   1.699   4.667   1.935
 2700SOL     OW10106   0.299   3.791   0.595
 2700SOL    HW110107   0.272   3.879   0.624
 2700SOL    HW210108   0.317   3.748   0.681
 2701SOL     OW10109   1.593   4.097   0.340
 2701SOL    HW110110   1.628   4.031   0.402
 2701SOL    HW210111   1.579   4.176   0.398
 2702SOL     OW10112   1.071   4.473   0.979
 2702SOL    HW110113   1.037   4.485   1.069
 2702SOL    HW210114   1.035   4.385   0.957
 2703SOL     OW10115   0.986   5.292   1.692
 2703SOL    HW110116   0.961   5.352   1.619
 2703SOL    HW210117   0.999   5.208   1.645
 2704SOL     OW10118   1.853   5.216   1.605
 2704SOL    HW110119   1.879   5.246   1.516
 2704SOL    HW210120   1.934   5.238   1.656
 2705SOL     OW10121   0.356   4.622   1.816
 2705SOL    HW110122   0.439   4.638   1.864
 2705SOL    HW210123   0.381   4.548   1.756
 2706SOL     OW10124   1.505   3.998   0.102
 2706SOL    HW110125   1.450   3.929   0.142
 2706SOL    HW210126   1.551   4.033   0.180
 2707SOL     OW10127   1.273   4.559   0.027
 2707SOL    HW110128   1.312   4.471   0.044
 2707SOL    HW210129   1.306   4.578  11.040
 2708SOL     OW10130   1.071   5.077   0.859
 2708SOL    HW110131   1.078   5.004   0.794
 2708SOL    HW210132   1.132   5.145   0.827
 2709SOL     OW10133   0.284   4.549   0.973
 2709SOL    HW110134   0.377   4.567   0.954
 2709SOL    HW210135   0.289   4.460   1.011
 2710SOL     OW10136   0.330   4.272   0.998
 2710SOL    HW110137   0.292   4.183   0.991
 2710SOL    HW210138   0.405   4.266   0.936
 2711SOL     OW10139   1.161   4.091   1.692
 2711SOL    HW110140   1.115   4.141   1.763
 2711SOL    HW210141   1.247   4.135   1.691
 2712SOL     OW10142   1.162   3.929   1.474
 2712SOL    HW110143   1.164   3.993   1.548
 2712SOL    HW210144   1.217   3.972   1.408
 2713SOL     OW10145  11.087   5.061   0.216
 2713SOL    HW110146  11.003   5.068   0.170
 2713SOL    HW210147  11.094   4.965   0.233
 2714SOL     OW10148   0.119   5.521   0.948
 2714SOL    HW110149   0.082   5.470   0.874
 2714SOL    HW210150   0.205   5.547   0.910
 2715SOL     OW10151   0.479   5.306   0.921
 2715SOL    HW110152   0.553   5.367   0.942
 2715SOL    HW210153   0.523   5.243   0.861
 2716SOL     OW10154   0.962   4.493   1.229
 2716SOL    HW110155   1.012   4.466   1.308
 2716SOL    HW210156   0.875   4.457   1.249
 2717SOL     OW10157   0.003   4.316   1.095
 2717SOL    HW110158   0.065   4.250   1.061
 2717SOL    HW210159   0.012   4.300   1.191
 2718SOL     OW10160   0.219   4.252   1.741
 2718SOL    HW110161   0.263   4.196   1.676
 2718SOL    HW210162   0.166   4.311   1.685
 2719SOL     OW10163   1.343   4.703   1.626
 2719SOL    HW110164   1.414   4.691   1.690
 2719SOL    HW210165   1.374   4.653   1.549
 2720SOL     OW10166   0.800   4.290   0.377
 2720SOL    HW110167   0.824   4.210   0.326
 2720SOL    HW210168   0.728   4.325   0.324
 2721SOL     OW10169   1.653   4.339   1.203
 2721SOL    HW110170   1.630   4.263   1.258
 2721SOL    HW210171   1.740   4.312   1.168
 2722SOL     OW10172   0.255   5.258   1.716
 2722SOL    HW110173   0.233   5.328   1.780
 2722SOL    HW210174   0.244   5.178   1.771
 2723SOL     OW10175   0.700   4.195   1.273
 2723SOL    HW110176   0.642   4.123   1.243
 2723SOL    HW210177   0.701   4.256   1.196
 2724SOL     OW10178   0.905   5.419   1.467
 2724SOL    HW110179   0.901   5.392   1.374
 2724SOL    HW210180   0.913   5.516   1.459
 2725SOL     OW10181   0.461   4.197   0.189
 2725SOL    HW110182   0.514   4.278   0.177
 2725SOL    HW210183   0.371   4.232   0.197
 2726SOL     OW10184   0.149   4.840   1.481
 2726SOL    HW110185   0.168   4.786   1.560
 2726SOL    HW210186   0.166   4.778   1.407
 2727SOL     OW10187   1.312   4.774   1.214
 2727SOL    HW110188   1.335   4.712   1.141
 2727SOL    HW210189   1.245   4.831   1.171
 2728SOL     OW10190   1.309   4.584   0.303
 2728SOL    HW110191   1.230   4.547   0.344
 2728SOL    HW210192   1.288   4.581   0.208
 2729SOL     OW10193   1.761   5.473   1.135
 2729SOL    HW110194   1.832   5.491   1.071
 2729SOL    HW210195   1.741   5.379   1.114
 2730SOL     OW10196   1.237   5.451   1.116
 2730SOL    HW110197   1.325   5.478   1.087
 2730SOL    HW210198   1.248   5.354   1.127
 2731SOL     OW10199   0.084   5.008   1.023
 2731SOL    HW110200   0.076   5.013   1.121
 2731SOL    HW210201   0.013   4.945   1.001
 2732SOL     OW10202   0.674   5.371   1.744
 2732SOL    HW110203   0.634   5.459   1.737
 2732SOL    HW210204   0.748   5.378   1.681
 2733SOL     OW10205   0.911   3.829   0.143
 2733SOL    HW110206   0.971   3.797   0.075
 2733SOL    HW210207   0.943   3.775   0.218
 2734SOL     OW10208   1.677   3.867   0.500
 2734SOL    HW110209   1.755   3.856   0.444
 2734SOL    HW210210   1.676   3.783   0.550
 2735SOL     OW10211   1.356   5.289   0.476
 2735SOL    HW110212   1.425   5.307   0.409
 2735SOL    HW210213   1.328   5.380   0.497
 2736SOL     OW10214   0.170   5.505   1.836
 2736SOL    HW110215   0.115   5.442   1.887
 2736SOL    HW210216   0.215   5.552   1.909
 2737SOL     OW10217   1.256   4.641   0.632
 2737SOL    HW110218   1.338   4.592   0.647
 2737SOL    HW210219   1.291   4.724   0.594
 2738SOL     OW10220   0.810   4.988   1.445
 2738SOL    HW110221   0.777   5.030   1.527
 2738SOL    HW210222   0.736   5.002   1.385
 2739SOL     OW10223   0.698   5.351   0.171
 2739SOL    HW110224   0.696   5.373   0.078
 2739SOL    HW210225   0.624   5.287   0.177
 2740SOL     OW10226   1.621   5.437   1.394
 2740SOL    HW110227   1.670   5.451   1.311
 2740SOL    HW210228   1.605   5.528   1.425
 2741SOL     OW10229   1.840   3.881   0.974
 2741SOL    HW110230   1.864   3.795   0.936
 2741SOL    HW210231   1.755   3.902   0.929
 2742SOL     OW10232   0.251   4.039   0.710
 2742SOL    HW110233   0.156   4.052   0.693
 2742SOL    HW210234   0.254   4.034   0.807
 2743SOL     OW10235   1.211   5.318   0.044
 2743SOL    HW110236   1.226   5.223   0.054
 2743SOL    HW210237   1.149   5.321  11.070
 2744SOL     OW10238   0.811   4.724   1.389
 2744SOL    HW110239   0.830   4.726   1.295
 2744SOL    HW210240   0.820   4.817   1.416
 2745SOL     OW10241   0.930   4.655   0.298
 2745SOL    HW110242   0.981   4.680   0.218
 2745SOL    HW210243   0.963   4.566   0.317
 2746SOL     OW10244   1.509   5.309   0.050
 2746SOL    HW110245   1.416   5.335   0.045
 2746SOL    HW210246   1.544   5.333  11.065
 2747SOL     OW10247   0.367   5.000   1.473
 2747SOL    HW110248   0.345   5.084   1.431
 2747SOL    HW210249   0.291   4.943   1.457
 2748SOL     OW10250   1.613   5.025   1.263
 2748SOL    HW110251   1.701   5.025   1.303
 2748SOL    HW210252   1.561   5.089   1.316
 2749SOL     OW10253   1.041   4.840   0.729
 2749SOL    HW110254   0.967   4.783   0.755
 2749SOL    HW210255   1.099   4.778   0.682
 2750SOL     OW10256   1.035   3.955   0.989
 2750SOL    HW110257   1.018   3.913   0.902
 2750SOL    HW210258   1.038   3.876   1.047
 2751SOL     OW10259   0.594   5.190   0.490
 2751SOL    HW110260   0.655   5.156   0.421
 2751SOL    HW210261   0.533   5.243   0.438
 2752SOL     OW10262   1.716   4.097   1.381
 2752SOL    HW110263   1.782   4.169   1.378
 2752SOL    HW210264   1.757   4.029   1.323
 2753SOL     OW10265   0.251   5.073   0.265
 2753SOL    HW110266   0.156   5.079   0.241
 2753SOL    HW210267   0.249   5.096   0.360
 2754SOL     OW10268   0.130   4.718   1.736
 2754SOL    HW110269   0.073   4.693   1.809
 2754SOL    HW210270   0.219   4.691   1.770
 2755SOL     OW10271   0.685   3.913   1.492
 2755SOL    HW110272   0.772   3.878   1.465
 2755SOL    HW210273   0.705   3.954   1.578
 2756SOL     OW10274   0.074   4.065   0.069
 2756SOL    HW110275  11.087   4.028   0.052
 2756SOL    HW210276   0.078   4.136   0.004
 2757SOL     OW10277   1.457   4.588   1.402
 2757SOL    HW110278   1.409   4.639   1.334
 2757SOL    HW210279   1.549   4.609   1.378
 2758SOL     OW10280   0.064   3.895   0.318
 2758SOL    HW110281   0.064   3.967   0.254
 2758SOL    HW210282   0.145   3.846   0.294
 2759SOL     OW10283   1.203   5.040   0.122
 2759SOL    HW110284   1.107   5.038   0.110
 2759SOL    HW210285   1.211   5.044   0.219
 2760SOL     OW10286   0.607   4.547   1.414
 2760SOL    HW110287   0.670   4.621   1.417
 2760SOL    HW210288   0.669   4.474   1.433
 2761SOL     OW10289   1.508   5.505   0.957
 2761SOL    HW110290   1.545   5.541   0.875
 2761SOL    HW210291   1.586   5.488   1.010
 2762SOL     OW10292   0.732   4.260   1.706
 2762SOL    HW110293   0.776   4.323   1.766
 2762SOL    HW210294   0.752   4.173   1.744
 2763SOL     OW10295   0.388   5.457   1.556
 2763SOL    HW110296   0.299   5.495   1.549
 2763SOL    HW210297   0.367   5.373   1.600
 2764SOL     OW10298   1.690   4.607   1.232
 2764SOL    HW110299   1.670   4.514   1.208
 2764SOL    HW210300   1.648   4.659   1.161
 2765SOL     OW10301   1.209   4.044   0.482
 2765SOL    HW110302   1.276   3.974   0.468
 2765SOL    HW210303   1.247   4.095   0.557
 2766SOL     OW10304   0.595   4.459   0.664
 2766SOL    HW110305   0.616   4.554   0.657
 2766SOL    HW210306   0.520   4.450   0.604
 2767SOL     OW10307   1.768   4.106   1.644
 2767SOL    HW110308   1.742   4.107   1.550
 2767SOL    HW210309   1.694   4.056   1.683
 2768SOL     OW10310   1.737   4.666   1.492
 2768SOL    HW110311   1.759   4.759   1.480
 2768SOL    HW210312   1.749   4.631   1.401
 2769SOL     OW10313   0.901   5.086   0.050
 2769SOL    HW110314   0.812   5.094   0.088
 2769SOL    HW210315   0.914   5.170   0.003
 2770SOL     OW10316   0.654   5.513   0.925
 2770SOL    HW110317   0.650   5.609   0.909
 2770SOL    HW210318   0.749   5.494   0.925
 2771SOL     OW10319   0.860   4.667   0.835
 2771SOL    HW110320   0.908   4.598   0.882
 2771SOL    HW210321   0.839   4.730   0.906
 2772SOL     OW10322   1.051   4.708   0.071
 2772SOL    HW110323   1.064   4.783   0.012
 2772SOL    HW210324   1.134   4.658   0.060
 2773SOL     OW10325   1.845   5.289   0.838
 2773SOL    HW110326   1.757   5.275   0.802
 2773SOL    HW210327   1.861   5.210   0.890
 2774SOL     OW10328   0.208   5.031   1.853
 2774SOL    HW110329   0.155   4.951   1.844
 2774SOL    HW210330   0.222   5.035   1.950
 2775SOL     OW10331   0.085   4.944   0.659
 2775SOL    HW110332   0.092   4.886   0.735
 2775SOL    HW210333   0.166   4.924   0.610
 2776SOL     OW10334   0.663   5.122   1.627
 2776SOL    HW110335   0.581   5.073   1.649
 2776SOL    HW210336   0.652   5.204   1.679
 2777SOL     OW10337   1.810   3.896   1.235
 2777SOL    HW110338   1.832   3.803   1.253
 2777SOL    HW210339   1.819   3.898   1.138
 2778SOL     OW10340   0.403   4.149   0.498
 2778SOL    HW110341   0.459   4.082   0.456
 2778SOL    HW210342   0.367   4.104   0.576
 2779SOL     OW10343   1.702   5.220   1.085
 2779SOL    HW110344   1.623   5.191   1.036
 2779SOL    HW210345   1.703   5.157   1.157
 2780SOL     OW10346   0.326   4.264   1.285
 2780SOL    HW110347   0.378   4.207   1.343
 2780SOL    HW210348   0.337   4.223   1.198
 2781SOL     OW10349   0.822   5.309   0.667
 2781SOL    HW110350   0.819   5.330   0.573
 2781SOL    HW210351   0.738   5.264   0.682
 2782SOL     OW10352   1.436   3.964   1.094
 2782SOL    HW110353   1.477   3.890   1.139
 2782SOL    HW210354   1.387   4.008   1.166
 2783SOL     OW10355   1.020   3.730   1.152
 2783SOL    HW110356   0.961   3.656   1.130
 2783SOL    HW210357   1.107   3.686   1.149
 2784SOL     OW10358   0.760   5.058   0.330
 2784SOL    HW110359   0.748   4.962   0.332
 2784SOL    HW210360   0.852   5.068   0.356
 2785SOL     OW10361   0.595   5.284   1.278
 2785SOL    HW110362   0.602   5.373   1.316
 2785SOL    HW210363   0.689   5.267   1.260
 2786SOL     OW10364   1.333   3.751   0.172
 2786SOL    HW110365   1.356   3.713   0.087
 2786SOL    HW210366   1.249   3.706   0.193
 2787SOL     OW10367   1.308   4.199   0.698
 2787SOL    HW110368   1.241   4.269   0.697
 2787SOL    HW210369   1.291   4.155   0.784
 2788SOL     OW10370   1.600   3.926   0.862
 2788SOL    HW110371   1.527   3.940   0.924
 2788SOL    HW210372   1.600   4.007   0.809
 2789SOL     OW10373   0.054   4.807   0.293
 2789SOL    HW110374   0.135   4.829   0.339
 2789SOL    HW210375   0.055   4.711   0.296
 2790SOL     OW10376   0.894   5.364   0.367
 2790SOL    HW110377   0.824   5.351   0.300
 2790SOL    HW210378   0.869   5.451   0.406
 2791SOL     OW10379   0.246   4.373   1.992
 2791SOL    HW110380   0.162   4.350   2.034
 2791SOL    HW210381   0.241   4.330   1.905
 2792SOL     OW10382   0.231   4.021   2.869
 2792SOL    HW110383   0.261   3.994   2.959
 2792SOL    HW210384   0.172   3.949   2.846
 2793SOL     OW10385   0.002   4.100   2.506
 2793SOL    HW110386  11.026   4.128   2.555
 2793SOL    HW210387  11.079   4.010   2.476
 2794SOL     OW10388   0.570   5.016   3.042
 2794SOL    HW110389   0.484   5.025   2.999
 2794SOL    HW210390   0.580   5.103   3.084
 2795SOL     OW10391   1.537   5.260   2.574
 2795SOL    HW110392   1.506   5.229   2.662
 2795SOL    HW210393   1.459   5.252   2.517
 2796SOL     OW10394   1.122   4.410   2.561
 2796SOL    HW110395   1.163   4.497   2.539
 2796SOL    HW210396   1.096   4.423   2.653
 2797SOL     OW10397   1.772   4.335   2.103
 2797SOL    HW110398   1.759   4.325   2.007
 2797SOL    HW210399   1.722   4.260   2.139
 2798SOL     OW10400   0.757   4.893   2.892
 2798SOL    HW110401   0.687   4.930   2.949
 2798SOL    HW210402   0.789   4.974   2.847
 2799SOL     OW10403   0.890   4.465   3.662
 2799SOL    HW110404   0.867   4.531   3.729
 2799SOL    HW210405   0.918   4.521   3.586
 2800SOL     OW10406   0.683   4.750   2.508
 2800SOL    HW110407   0.742   4.725   2.581
 2800SOL    HW210408   0.612   4.797   2.554
 2801SOL     OW10409   0.698   4.881   3.665
 2801SOL    HW110410   0.750   4.961   3.686
 2801SOL    HW210411   0.617   4.918   3.627
 2802SOL     OW10412   0.321   5.148   2.932
 2802SOL    HW110413   0.247   5.113   2.880
 2802SOL    HW210414   0.365   5.207   2.868
 2803SOL     OW10415   1.470   5.223   3.236
 2803SOL    HW110416   1.526   5.303   3.245
 2803SOL    HW210417   1.403   5.239   3.304
 2804SOL     OW10418   0.436   4.097   3.405
 2804SOL    HW110419   0.521   4.059   3.380
 2804SOL    HW210420   0.373   4.046   3.352
 2805SOL     OW10421   1.624   4.177   2.605
 2805SOL    HW110422   1.555   4.209   2.545
 2805SOL    HW210423   1.599   4.219   2.688
 2806SOL     OW10424   0.213   5.406   2.316
 2806SOL    HW110425   0.218   5.478   2.381
 2806SOL    HW210426   0.281   5.432   2.252
 2807SOL     OW10427   1.121   5.067   3.512
 2807SOL    HW110428   1.163   5.076   3.598
 2807SOL    HW210429   1.079   4.980   3.521
 2808SOL     OW10430   0.230   5.135   2.368
 2808SOL    HW110431   0.219   5.231   2.363
 2808SOL    HW210432   0.164   5.111   2.435
 2809SOL     OW10433   0.261   4.842   2.766
 2809SOL    HW110434   0.247   4.757   2.809
 2809SOL    HW210435   0.192   4.898   2.807
 2810SOL     OW10436   0.622   5.512   3.271
 2810SOL    HW110437   0.544   5.498   3.326
 2810SOL    HW210438   0.647   5.604   3.291
 2811SOL     OW10439   0.583   4.717   1.984
 2811SOL    HW110440   0.629   4.770   1.916
 2811SOL    HW210441   0.629   4.747   2.065
 2812SOL     OW10442   1.612   3.825   3.359
 2812SOL    HW110443   1.602   3.907   3.306
 2812SOL    HW210444   1.625   3.865   3.447
 2813SOL     OW10445   0.118   4.365   2.410
 2813SOL    HW110446   0.101   4.270   2.419
 2813SOL    HW210447   0.100   4.399   2.499
 2814SOL     OW10448   1.844   5.463   2.210
 2814SOL    HW110449   1.903   5.440   2.284
 2814SOL    HW210450   1.865   5.557   2.195
 2815SOL     OW10451   0.053   5.315   1.983
 2815SOL    HW110452   0.026   5.223   2.003
 2815SOL    HW210453   0.045   5.359   2.068
 2816SOL     OW10454   1.672   4.634   2.491
 2816SOL    HW110455   1.755   4.599   2.457
 2816SOL    HW210456   1.647   4.698   2.423
 2817SOL     OW10457   1.643   4.848   2.303
 2817SOL    HW110458   1.736   4.837   2.279
 2817SOL    HW210459   1.650   4.915   2.374
 2818SOL     OW10460   0.116   4.453   3.454
 2818SOL    HW110461   0.205   4.488   3.469
 2818SOL    HW210462   0.066   4.533   3.428
 2819SOL     OW10463   0.609   5.119   2.619
 2819SOL    HW110464   0.563   5.033   2.632
 2819SOL    HW210465   0.598   5.128   2.523
 2820SOL     OW10466   1.277   4.947   3.279
 2820SOL    HW110467   1.315   4.880   3.219
 2820SOL    HW210468   1.329   4.934   3.361
 2821SOL     OW10469   0.828   3.723   2.360
 2821SOL    HW110470   0.856   3.816   2.354
 2821SOL    HW210471   0.730   3.732   2.364
 2822SOL     OW10472   0.173   4.715   3.104
 2822SOL    HW110473   0.256   4.664   3.092
 2822SOL    HW210474   0.106   4.653   3.073
 2823SOL     OW10475   1.546   4.687   2.051
 2823SOL    HW110476   1.465   4.645   2.085
 2823SOL    HW210477   1.586   4.722   2.133
 2824SOL     OW10478   1.182   5.519   3.481
 2824SOL    HW110479   1.170   5.586   3.411
 2824SOL    HW210480   1.206   5.440   3.430
 2825SOL     OW10481   0.325   3.954   3.674
 2825SOL    HW110482   0.392   4.020   3.699
 2825SOL    HW210483   0.245   3.987   3.718
 2826SOL     OW10484   1.471   5.152   2.818
 2826SOL    HW110485   1.412   5.172   2.893
 2826SOL    HW210486   1.441   5.062   2.793
 2827SOL     OW10487   1.670   5.461   2.466
 2827SOL    HW110488   1.651   5.421   2.381
 2827SOL    HW210489   1.631   5.394   2.526
 2828SOL     OW10490   0.590   4.438   2.120
 2828SOL    HW110491   0.604   4.531   2.099
 2828SOL    HW210492   0.520   4.440   2.188
 2829SOL     OW10493   1.270   4.050   2.769
 2829SOL    HW110494   1.181   4.025   2.799
 2829SOL    HW210495   1.326   4.014   2.841
 2830SOL     OW10496   1.568   5.377   2.175
 2830SOL    HW110497   1.662   5.401   2.175
 2830SOL    HW210498   1.549   5.369   2.081
 2831SOL     OW10499   0.789   4.350   3.329
 2831SOL    HW110500   0.769   4.311   3.416
 2831SOL    HW210501   0.751   4.284   3.268
 2832SOL     OW10502   1.391   4.200   3.535
 2832SOL    HW110503   1.404   4.265   3.606
 2832SOL    HW210504   1.473   4.147   3.539
 2833SOL     OW10505   0.960   4.610   3.442
 2833SOL    HW110506   1.001   4.529   3.404
 2833SOL    HW210507   0.909   4.643   3.366
 2834SOL     OW10508   0.978   4.126   3.088
 2834SOL    HW110509   0.887   4.133   3.121
 2834SOL    HW210510   0.970   4.068   3.011
 2835SOL     OW10511   1.042   4.404   2.271
 2835SOL    HW110512   1.062   4.424   2.364
 2835SOL    HW210513   0.956   4.358   2.279
 2836SOL     OW10514   0.090   4.523   2.633
 2836SOL    HW110515   0.173   4.514   2.682
 2836SOL    HW210516   0.051   4.600   2.679
 2837SOL     OW10517   0.140   5.566   3.446
 2837SOL    HW110518   0.147   5.545   3.542
 2837SOL    HW210519   0.077   5.500   3.414
 2838SOL     OW10520   0.891   4.112   2.075
 2838SOL    HW110521   0.937   4.159   2.003
 2838SOL    HW210522   0.895   4.021   2.041
 2839SOL     OW10523   1.715   4.312   3.703
 2839SOL    HW110524   1.677   4.390   3.657
 2839SOL    HW210525   1.742   4.258   3.628
 2840SOL     OW10526   1.360   4.875   2.428
 2840SOL    HW110527   1.438   4.867   2.371
 2840SOL    HW210528   1.307   4.938   2.378
 2841SOL     OW10529   0.588   3.937   2.749
 2841SOL    HW110530   0.580   3.942   2.846
 2841SOL    HW210531   0.576   4.029   2.721
 2842SOL     OW10532   0.996   5.170   2.354
 2842SOL    HW110533   0.954   5.231   2.291
 2842SOL    HW210534   0.978   5.215   2.438
 2843SOL     OW10535   0.367   5.541   2.701
 2843SOL    HW110536   0.395   5.450   2.722
 2843SOL    HW210537   0.450   5.590   2.717
 2844SOL     OW10538   1.816   4.764   2.733
 2844SOL    HW110539   1.757   4.750   2.657
 2844SOL    HW210540   1.757   4.754   2.808
 2845SOL     OW10541   1.228   5.280   3.357
 2845SOL    HW110542   1.198   5.214   3.422
 2845SOL    HW210543   1.175   5.255   3.280
 2846SOL     OW10544   0.327   4.685   2.117
 2846SOL    HW110545   0.407   4.703   2.065
 2846SOL    HW210546   0.306   4.593   2.093
 2847SOL     OW10547   1.468   4.489   2.589
 2847SOL    HW110548   1.482   4.449   2.677
 2847SOL    HW210549   1.551   4.537   2.575
 2848SOL     OW10550   0.460   5.007   3.587
 2848SOL    HW110551   0.432   5.008   3.492
 2848SOL    HW210552   0.375   5.016   3.632
 2849SOL     OW10553   1.098   5.513   2.111
 2849SOL    HW110554   1.032   5.456   2.156
 2849SOL    HW210555   1.114   5.463   2.029
 2850SOL     OW10556   0.175   3.997   3.360
 2850SOL    HW110557   0.104   4.050   3.401
 2850SOL    HW210558   0.194   3.934   3.430
 2851SOL     OW10559   1.610   5.086   1.946
 2851SOL    HW110560   1.569   5.175   1.941
 2851SOL    HW210561   1.538   5.034   1.987
 2852SOL     OW10562   0.459   5.458   2.182
 2852SOL    HW110563   0.505   5.506   2.253
 2852SOL    HW210564   0.532   5.424   2.127
 2853SOL     OW10565   1.403   3.828   2.303
 2853SOL    HW110566   1.396   3.791   2.214
 2853SOL    HW210567   1.498   3.841   2.314
 2854SOL     OW10568   0.254   5.521   3.091
 2854SOL    HW110569   0.310   5.453   3.133
 2854SOL    HW210570   0.243   5.487   3.001
 2855SOL     OW10571   0.940   5.427   2.759
 2855SOL    HW110572   1.027   5.388   2.775
 2855SOL    HW210573   0.908   5.372   2.685
 2856SOL     OW10574   0.407   4.419   2.321
 2856SOL    HW110575   0.430   4.326   2.341
 2856SOL    HW210576   0.317   4.422   2.357
 2857SOL     OW10577   1.555   3.980   3.595
 2857SOL    HW110578   1.543   3.982   3.693
 2857SOL    HW210579   1.490   3.912   3.570
 2858SOL     OW10580   0.628   3.857   1.966
 2858SOL    HW110581   0.700   3.796   1.985
 2858SOL    HW210582   0.577   3.808   1.898
 2859SOL     OW10583   0.755   3.979   3.606
 2859SOL    HW110584   0.838   3.927   3.618
 2859SOL    HW210585   0.705   3.960   3.687
 2860SOL     OW10586   0.872   5.256   3.055
 2860SOL    HW110587   0.862   5.237   2.961
 2860SOL    HW210588   0.932   5.186   3.085
 2861SOL     OW10589   1.327   4.324   3.289
 2861SOL    HW110590   1.378   4.270   3.352
 2861SOL    HW210591   1.392   4.393   3.265
 2862SOL     OW10592   0.821   5.137   2.797
 2862SOL    HW110593   0.905   5.120   2.751
 2862SOL    HW210594   0.755   5.128   2.725
 2863SOL     OW10595   0.940   4.264   2.772
 2863SOL    HW110596   0.915   4.256   2.677
 2863SOL    HW210597   0.953   4.171   2.794
 2864SOL     OW10598   0.561   3.771   2.361
 2864SOL    HW110599   0.479   3.771   2.413
 2864SOL    HW210600   0.552   3.855   2.311
 2865SOL     OW10601   1.434   4.879   1.884
 2865SOL    HW110602   1.463   4.806   1.943
 2865SOL    HW210603   1.343   4.896   1.914
 2866SOL     OW10604   0.287   3.765   2.054
 2866SOL    HW110605   0.348   3.834   2.025
 2866SOL    HW210606   0.346   3.703   2.101
 2867SOL     OW10607   0.934   3.980   2.345
 2867SOL    HW110608   0.917   4.033   2.266
 2867SOL    HW210609   1.030   3.988   2.354
 2868SOL     OW10610   1.078   4.405   3.322
 2868SOL    HW110611   1.030   4.321   3.328
 2868SOL    HW210612   1.172   4.377   3.318
 2869SOL     OW10613   1.226   5.305   2.663
 2869SOL    HW110614   1.222   5.363   2.585
 2869SOL    HW210615   1.308   5.332   2.704
 2870SOL     OW10616   0.459   4.890   2.594
 2870SOL    HW110617   0.385   4.873   2.656
 2870SOL    HW210618   0.420   4.866   2.507
 2871SOL     OW10619   1.262   5.532   2.467
 2871SOL    HW110620   1.306   5.606   2.423
 2871SOL    HW210621   1.202   5.577   2.529
 2872SOL     OW10622   1.066   4.249   1.889
 2872SOL    HW110623   1.016   4.331   1.875
 2872SOL    HW210624   1.129   4.272   1.960
 2873SOL     OW10625   0.064   4.283   3.250
 2873SOL    HW110626   0.155   4.268   3.220
 2873SOL    HW210627   0.075   4.353   3.317
 2874SOL     OW10628   0.585   3.932   3.025
 2874SOL    HW110629   0.623   3.853   3.064
 2874SOL    HW210630   0.493   3.929   3.056
 2875SOL     OW10631   0.877   4.191   2.525
 2875SOL    HW110632   0.827   4.236   2.455
 2875SOL    HW210633   0.897   4.106   2.484
 2876SOL     OW10634   0.999   3.798   2.634
 2876SOL    HW110635   0.961   3.775   2.549
 2876SOL    HW210636   0.987   3.717   2.686
 2877SOL     OW10637   1.420   4.900   2.742
 2877SOL    HW110638   1.381   4.814   2.767
 2877SOL    HW210639   1.406   4.900   2.646
 2878SOL     OW10640   1.503   4.292   2.829
 2878SOL    HW110641   1.436   4.227   2.856
 2878SOL    HW210642   1.557   4.298   2.910
 2879SOL     OW10643   1.844   4.552   2.257
 2879SOL    HW110644   1.893   4.494   2.320
 2879SOL    HW210645   1.823   4.488   2.188
 2880SOL     OW10646   0.501   5.145   1.995
 2880SOL    HW110647   0.418   5.120   2.040
 2880SOL    HW210648   0.503   5.084   1.921
 2881SOL     OW10649   1.680   5.017   2.517
 2881SOL    HW110650   1.776   5.014   2.535
 2881SOL    HW210651   1.651   5.100   2.558
 2882SOL     OW10652   1.415   4.320   1.927
 2882SOL    HW110653   1.363   4.287   2.002
 2882SOL    HW210654   1.504   4.287   1.948
 2883SOL     OW10655   0.525   3.974   2.185
 2883SOL    HW110656   0.569   3.933   2.108
 2883SOL    HW210657   0.495   4.057   2.145
 2884SOL     OW10658   1.730   4.957   3.435
 2884SOL    HW110659   1.815   4.911   3.444
 2884SOL    HW210660   1.758   5.049   3.449
 2885SOL     OW10661   1.055   5.077   3.192
 2885SOL    HW110662   0.979   5.053   3.248
 2885SOL    HW210663   1.128   5.031   3.239
 2886SOL     OW10664   1.613   5.327   3.495
 2886SOL    HW110665   1.615   5.366   3.406
 2886SOL    HW210666   1.695   5.275   3.497
 2887SOL     OW10667   1.123   4.944   2.960
 2887SOL    HW110668   1.068   4.981   3.031
 2887SOL    HW210669   1.089   4.990   2.881
 2888SOL     OW10670   1.602   4.821   2.935
 2888SOL    HW110671   1.608   4.882   3.010
 2888SOL    HW210672   1.549   4.873   2.871
 2889SOL     OW10673   0.926   3.826   3.267
 2889SOL    HW110674   0.960   3.803   3.178
 2889SOL    HW210675   1.005   3.866   3.308
 2890SOL     OW10676   0.998   4.836   3.596
 2890SOL    HW110677   0.906   4.854   3.617
 2890SOL    HW210678   0.992   4.757   3.538
 2891SOL     OW10679   0.715   4.783   2.218
 2891SOL    HW110680   0.712   4.770   2.315
 2891SOL    HW210681   0.795   4.731   2.194
 2892SOL     OW10682   0.383   4.537   3.116
 2892SOL    HW110683   0.460   4.540   3.177
 2892SOL    HW210684   0.363   4.442   3.115
 2893SOL     OW10685   1.274   4.111   3.120
 2893SOL    HW110686   1.303   4.183   3.179
 2893SOL    HW210687   1.180   4.130   3.104
 2894SOL     OW10688   0.043   5.320   3.241
 2894SOL    HW110689   0.013   5.375   3.167
 2894SOL    HW210690   0.140   5.319   3.231
 2895SOL     OW10691   0.362   4.826   2.352
 2895SOL    HW110692   0.370   4.898   2.288
 2895SOL    HW210693   0.349   4.749   2.294
 2896SOL     OW10694   0.552   4.267   2.709
 2896SOL    HW110695   0.580   4.329   2.639
 2896SOL    HW210696   0.606   4.296   2.784
 2897SOL     OW10697   1.228   5.067   2.251
 2897SOL    HW110698   1.276   5.141   2.292
 2897SOL    HW210699   1.138   5.084   2.285
 2898SOL     OW10700   1.305   5.189   3.025
 2898SOL    HW110701   1.359   5.193   3.106
 2898SOL    HW210702   1.239   5.122   3.048
 2899SOL     OW10703   1.578   4.342   2.323
 2899SOL    HW110704   1.536   4.397   2.391
 2899SOL    HW210705   1.608   4.407   2.258
 2900SOL     OW10706   0.321   5.246   3.173
 2900SOL    HW110707   0.314   5.201   3.086
 2900SOL    HW210708   0.416   5.269   3.172
 2901SOL     OW10709   0.409   4.461   3.467
 2901SOL    HW110710   0.474   4.505   3.409
 2901SOL    HW210711   0.445   4.371   3.469
 2902SOL     OW10712   1.618   4.507   3.552
 2902SOL    HW110713   1.528   4.541   3.542
 2902SOL    HW210714   1.662   4.547   3.474
 2903SOL     OW10715   0.994   3.836   3.617
 2903SOL    HW110716   1.058   3.907   3.603
 2903SOL    HW210717   1.043   3.761   3.577
 2904SOL     OW10718   0.484   3.744   3.621
 2904SOL    HW110719   0.447   3.686   3.552
 2904SOL    HW210720   0.419   3.817   3.621
 2905SOL     OW10721   0.598   4.612   2.907
 2905SOL    HW110722   0.626   4.704   2.914
 2905SOL    HW210723   0.537   4.601   2.981
 2906SOL     OW10724   1.352   4.582   2.880
 2906SOL    HW110725   1.267   4.542   2.859
 2906SOL    HW210726   1.407   4.505   2.899
 2907SOL     OW10727   1.228   4.242   2.127
 2907SOL    HW110728   1.234   4.167   2.190
 2907SOL    HW210729   1.165   4.300   2.174
 2908SOL     OW10730   0.304   3.920   3.112
 2908SOL    HW110731   0.239   3.946   3.180
 2908SOL    HW210732   0.292   3.823   3.110
 2909SOL     OW10733   0.057   5.039   3.146
 2909SOL    HW110734   0.106   4.978   3.204
 2909SOL    HW210735   0.076   5.127   3.182
 2910SOL     OW10736   0.724   4.366   2.917
 2910SOL    HW110737   0.808   4.351   2.870
 2910SOL    HW210738   0.701   4.459   2.898
 2911SOL     OW10739   1.768   4.669   3.711
 2911SOL    HW110740   1.722   4.610   3.649
 2911SOL    HW210741   1.701   4.679   3.780
 2912SOL     OW10742   0.288   3.776   2.463
 2912SOL    HW110743   0.271   3.870   2.485
 2912SOL    HW210744   0.317   3.742   2.550
 2913SOL     OW10745   1.592   4.097   2.214
 2913SOL    HW110746   1.629   4.028   2.271
 2913SOL    HW210747   1.585   4.174   2.274
 2914SOL     OW10748   1.081   4.475   2.845
 2914SOL    HW110749   1.045   4.495   2.934
 2914SOL    HW210750   1.039   4.389   2.827
 2915SOL     OW10751   0.987   5.288   3.569
 2915SOL    HW110752   0.960   5.335   3.487
 2915SOL    HW210753   1.017   5.202   3.533
 2916SOL     OW10754   1.857   5.208   3.460
 2916SOL    HW110755   1.877   5.241   3.370
 2916SOL    HW210756   1.936   5.237   3.510
 2917SOL     OW10757   0.349   4.615   3.682
 2917SOL    HW110758   0.433   4.637   3.724
 2917SOL    HW210759   0.375   4.545   3.620
 2918SOL     OW10760   1.504   3.979   1.989
 2918SOL    HW110761   1.441   3.912   2.020
 2918SOL    HW210762   1.538   4.018   2.072
 2919SOL     OW10763   1.306   4.563   1.885
 2919SOL    HW110764   1.356   4.480   1.901
 2919SOL    HW210765   1.298   4.563   1.789
 2920SOL     OW10766   1.059   5.084   2.705
 2920SOL    HW110767   1.079   5.007   2.648
 2920SOL    HW210768   1.132   5.146   2.688
 2921SOL     OW10769   0.282   4.557   2.825
 2921SOL    HW110770   0.371   4.578   2.795
 2921SOL    HW210771   0.295   4.470   2.868
 2922SOL     OW10772   0.328   4.278   2.854
 2922SOL    HW110773   0.290   4.189   2.843
 2922SOL    HW210774   0.403   4.276   2.792
 2923SOL     OW10775   1.155   4.085   3.559
 2923SOL    HW110776   1.114   4.142   3.627
 2923SOL    HW210777   1.244   4.126   3.553
 2924SOL     OW10778   1.163   3.919   3.348
 2924SOL    HW110779   1.169   3.984   3.421
 2924SOL    HW210780   1.220   3.961   3.281
 2925SOL     OW10781  11.091   5.050   2.053
 2925SOL    HW110782  10.995   5.055   2.056
 2925SOL    HW210783   0.005   4.960   2.087
 2926SOL     OW10784   0.133   5.521   2.825
 2926SOL    HW110785   0.091   5.466   2.757
 2926SOL    HW210786   0.219   5.540   2.781
 2927SOL     OW10787   0.485   5.311   2.780
 2927SOL    HW110788   0.559   5.375   2.784
 2927SOL    HW210789   0.526   5.238   2.731
 2928SOL     OW10790   0.959   4.497   3.091
 2928SOL    HW110791   1.017   4.467   3.164
 2928SOL    HW210792   0.874   4.461   3.118
 2929SOL     OW10793  11.084   4.327   2.956
 2929SOL    HW110794   0.054   4.294   2.899
 2929SOL    HW210795   0.007   4.289   3.042
 2930SOL     OW10796   0.208   4.251   3.613
 2930SOL    HW110797   0.263   4.197   3.553
 2930SOL    HW210798   0.171   4.316   3.551
 2931SOL     OW10799   1.373   4.637   3.504
 2931SOL    HW110800   1.399   4.731   3.502
 2931SOL    HW210801   1.381   4.611   3.410
 2932SOL     OW10802   0.791   4.288   2.266
 2932SOL    HW110803   0.814   4.227   2.193
 2932SOL    HW210804   0.715   4.335   2.228
 2933SOL     OW10805   1.650   4.347   3.063
 2933SOL    HW110806   1.625   4.280   3.129
 2933SOL    HW210807   1.735   4.310   3.032
 2934SOL     OW10808   0.254   5.260   3.583
 2934SOL    HW110809   0.230   5.333   3.641
 2934SOL    HW210810   0.246   5.183   3.642
 2935SOL     OW10811   0.678   4.199   3.133
 2935SOL    HW110812   0.648   4.116   3.094
 2935SOL    HW210813   0.686   4.259   3.055
 2936SOL     OW10814   0.892   5.375   3.330
 2936SOL    HW110815   0.883   5.349   3.237
 2936SOL    HW210816   0.913   5.471   3.320
 2937SOL     OW10817   0.459   4.209   2.056
 2937SOL    HW110818   0.524   4.282   2.059
 2937SOL    HW210819   0.376   4.261   2.053
 2938SOL     OW10820   0.168   4.847   3.336
 2938SOL    HW110821   0.183   4.791   3.413
 2938SOL    HW210822   0.173   4.785   3.260
 2939SOL     OW10823   1.324   4.766   3.083
 2939SOL    HW110824   1.341   4.704   3.009
 2939SOL    HW210825   1.256   4.824   3.044
 2940SOL     OW10826   1.317   4.581   2.160
 2940SOL    HW110827   1.236   4.554   2.207
 2940SOL    HW210828   1.292   4.576   2.066
 2941SOL     OW10829   1.756   5.474   2.992
 2941SOL    HW110830   1.830   5.493   2.931
 2941SOL    HW210831   1.744   5.378   2.977
 2942SOL     OW10832   1.245   5.448   2.977
 2942SOL    HW110833   1.337   5.467   2.954
 2942SOL    HW210834   1.247   5.352   2.988
 2943SOL     OW10835   0.081   5.013   2.875
 2943SOL    HW110836   0.085   5.029   2.971
 2943SOL    HW210837   0.011   4.946   2.870
 2944SOL     OW10838   0.681   5.369   3.592
 2944SOL    HW110839   0.626   5.448   3.587
 2944SOL    HW210840   0.756   5.392   3.535
 2945SOL     OW10841   1.677   3.857   2.351
 2945SOL    HW110842   1.758   3.844   2.299
 2945SOL    HW210843   1.677   3.777   2.408
 2946SOL     OW10844   1.361   5.295   2.345
 2946SOL    HW110845   1.426   5.313   2.275
 2946SOL    HW210846   1.326   5.384   2.363
 2947SOL     OW10847   0.161   5.508   3.708
 2947SOL    HW110848   0.109   5.446   3.762
 2947SOL    HW210849   0.212   5.556   3.776
 2948SOL     OW10850   1.249   4.641   2.512
 2948SOL    HW110851   1.329   4.598   2.549
 2948SOL    HW210852   1.285   4.725   2.478
 2949SOL     OW10853   0.809   4.979   3.304
 2949SOL    HW110854   0.783   5.028   3.385
 2949SOL    HW210855   0.736   5.003   3.245
 2950SOL     OW10856   0.680   5.340   2.021
 2950SOL    HW110857   0.682   5.353   1.925
 2950SOL    HW210858   0.623   5.260   2.026
 2951SOL     OW10859   1.619   5.442   3.250
 2951SOL    HW110860   1.667   5.460   3.168
 2951SOL    HW210861   1.603   5.532   3.285
 2952SOL     OW10862   1.845   3.894   2.833
 2952SOL    HW110863   1.863   3.805   2.798
 2952SOL    HW210864   1.757   3.915   2.796
 2953SOL     OW10865   0.260   4.030   2.559
 2953SOL    HW110866   0.167   4.055   2.546
 2953SOL    HW210867   0.267   4.032   2.656
 2954SOL     OW10868   1.178   5.361   1.890
 2954SOL    HW110869   1.190   5.265   1.904
 2954SOL    HW210870   1.122   5.364   1.810
 2955SOL     OW10871   0.803   4.720   3.243
 2955SOL    HW110872   0.850   4.716   3.159
 2955SOL    HW210873   0.817   4.812   3.272
 2956SOL     OW10874   0.929   4.649   2.134
 2956SOL    HW110875   1.004   4.683   2.083
 2956SOL    HW210876   0.961   4.565   2.170
 2957SOL     OW10877   1.497   5.322   1.905
 2957SOL    HW110878   1.408   5.360   1.905
 2957SOL    HW210879   1.528   5.338   1.814
 2958SOL     OW10880   0.388   5.005   3.335
 2958SOL    HW110881   0.367   5.087   3.289
 2958SOL    HW210882   0.310   4.948   3.317
 2959SOL     OW10883   1.607   5.029   3.128
 2959SOL    HW110884   1.646   5.001   3.211
 2959SOL    HW210885   1.546   5.099   3.160
 2960SOL     OW10886   1.040   4.831   2.582
 2960SOL    HW110887   0.967   4.782   2.623
 2960SOL    HW210888   1.098   4.760   2.550
 2961SOL     OW10889   1.025   3.955   2.851
 2961SOL    HW110890   1.014   3.910   2.764
 2961SOL    HW210891   1.032   3.877   2.911
 2962SOL     OW10892   0.591   5.170   2.346
 2962SOL    HW110893   0.663   5.154   2.282
 2962SOL    HW210894   0.526   5.218   2.293
 2963SOL     OW10895   0.250   5.079   2.116
 2963SOL    HW110896   0.153   5.089   2.105
 2963SOL    HW210897   0.257   5.093   2.213
 2964SOL     OW10898   0.132   4.732   3.594
 2964SOL    HW110899   0.066   4.688   3.649
 2964SOL    HW210900   0.216   4.692   3.628
 2965SOL     OW10901   0.683   3.919   3.350
 2965SOL    HW110902   0.772   3.890   3.322
 2965SOL    HW210903   0.699   3.949   3.441
 2966SOL     OW10904   0.095   4.052   1.909
 2966SOL    HW110905   0.003   4.042   1.881
 2966SOL    HW210906   0.120   4.133   1.860
 2967SOL     OW10907   1.454   4.586   3.249
 2967SOL    HW110908   1.412   4.649   3.188
 2967SOL    HW210909   1.548   4.600   3.230
 2968SOL     OW10910   0.072   3.886   2.175
 2968SOL    HW110911   0.059   3.961   2.116
 2968SOL    HW210912   0.152   3.843   2.138
 2969SOL     OW10913   1.206   5.075   1.972
 2969SOL    HW110914   1.121   5.030   1.979
 2969SOL    HW210915   1.232   5.080   2.066
 2970SOL     OW10916   0.609   4.542   3.277
 2970SOL    HW110917   0.666   4.621   3.273
 2970SOL    HW210918   0.677   4.474   3.297
 2971SOL     OW10919   1.515   5.488   2.821
 2971SOL    HW110920   1.544   5.542   2.746
 2971SOL    HW210921   1.594   5.482   2.876
 2972SOL     OW10922   0.718   4.267   3.574
 2972SOL    HW110923   0.772   4.332   3.622
 2972SOL    HW210924   0.740   4.182   3.615
 2973SOL     OW10925   1.458   4.904   3.489
 2973SOL    HW110926   1.453   4.910   3.587
 2973SOL    HW210927   1.551   4.927   3.472
 2974SOL     OW10928   0.393   5.454   3.417
 2974SOL    HW110929   0.310   5.505   3.410
 2974SOL    HW210930   0.362   5.374   3.462
 2975SOL     OW10931   1.706   4.607   3.101
 2975SOL    HW110932   1.687   4.514   3.076
 2975SOL    HW210933   1.663   4.658   3.030
 2976SOL     OW10934   1.215   4.052   2.333
 2976SOL    HW110935   1.282   3.982   2.333
 2976SOL    HW210936   1.243   4.107   2.410
 2977SOL     OW10937   0.605   4.472   2.518
 2977SOL    HW110938   0.628   4.566   2.514
 2977SOL    HW210939   0.539   4.463   2.447
 2978SOL     OW10940   1.771   4.110   3.499
 2978SOL    HW110941   1.738   4.132   3.409
 2978SOL    HW210942   1.697   4.055   3.531
 2979SOL     OW10943   1.738   4.664   3.366
 2979SOL    HW110944   1.733   4.759   3.350
 2979SOL    HW210945   1.757   4.628   3.277
 2980SOL     OW10946   0.859   5.094   1.883
 2980SOL    HW110947   0.838   5.102   1.977
 2980SOL    HW210948   0.896   5.180   1.859
 2981SOL     OW10949   0.655   5.527   2.753
 2981SOL    HW110950   0.647   5.624   2.761
 2981SOL    HW210951   0.743   5.509   2.789
 2982SOL     OW10952   0.868   4.670   2.717
 2982SOL    HW110953   0.919   4.602   2.763
 2982SOL    HW210954   0.848   4.733   2.788
 2983SOL     OW10955   1.115   4.737   1.957
 2983SOL    HW110956   1.076   4.777   1.877
 2983SOL    HW210957   1.177   4.672   1.919
 2984SOL     OW10958   1.871   5.276   2.691
 2984SOL    HW110959   1.776   5.277   2.679
 2984SOL    HW210960   1.883   5.207   2.757
 2985SOL     OW10961   0.215   5.024   3.717
 2985SOL    HW110962   0.171   4.943   3.689
 2985SOL    HW210963   0.218   5.015   3.814
 2986SOL     OW10964   0.086   4.957   2.514
 2986SOL    HW110965   0.095   4.900   2.591
 2986SOL    HW210966   0.163   4.934   2.462
 2987SOL     OW10967   0.673   5.127   3.482
 2987SOL    HW110968   0.590   5.086   3.513
 2987SOL    HW210969   0.670   5.214   3.526
 2988SOL     OW10970   1.869   3.871   3.095
 2988SOL    HW110971   1.816   3.792   3.104
 2988SOL    HW210972   1.854   3.895   3.001
 2989SOL     OW10973   0.441   4.158   2.395
 2989SOL    HW110974   0.481   4.091   2.338
 2989SOL    HW210975   0.388   4.107   2.458
 2990SOL     OW10976   1.715   5.216   2.945
 2990SOL    HW110977   1.632   5.189   2.903
 2990SOL    HW210978   1.718   5.155   3.020
 2991SOL     OW10979   0.326   4.260   3.134
 2991SOL    HW110980   0.393   4.205   3.177
 2991SOL    HW210981   0.333   4.234   3.041
 2992SOL     OW10982   0.832   5.317   2.531
 2992SOL    HW110983   0.809   5.388   2.469
 2992SOL    HW210984   0.749   5.268   2.542
 2993SOL     OW10985   1.428   3.962   2.964
 2993SOL    HW110986   1.492   3.919   3.022
 2993SOL    HW210987   1.379   4.017   3.029
 2994SOL     OW10988   1.016   3.727   3.017
 2994SOL    HW110989   0.959   3.654   2.990
 2994SOL    HW210990   1.105   3.684   3.013
 2995SOL     OW10991   0.796   5.060   2.173
 2995SOL    HW110992   0.761   4.970   2.180
 2995SOL    HW210993   0.865   5.059   2.241
 2996SOL     OW10994   0.596   5.272   3.139
 2996SOL    HW110995   0.603   5.356   3.190
 2996SOL    HW210996   0.688   5.266   3.108
 2997SOL     OW10997   1.325   3.766   2.032
 2997SOL    HW110998   1.333   3.691   1.972
 2997SOL    HW210999   1.237   3.749   2.072
 2998SOL     OW11000   1.284   4.199   2.541
 2998SOL    HW111001   1.223   4.275   2.546
 2998SOL    HW211002   1.271   4.154   2.627
 2999SOL     OW11003   1.600   3.929   2.729
 2999SOL    HW111004   1.526   3.942   2.791
 2999SOL    HW211005   1.596   4.009   2.674
 3000SOL     OW11006   0.054   4.803   2.152
 3000SOL    HW111007   0.150   4.805   2.159
 3000SOL    HW211008   0.035   4.710   2.174
 3001SOL     OW11009   0.893   5.372   2.192
 3001SOL    HW111010   0.817   5.355   2.133
 3001SOL    HW211011   0.867   5.452   2.243
 3002SOL     OW11012   0.245   4.378   3.853
 3002SOL    HW111013   0.162   4.350   3.895
 3002SOL    HW211014   0.240   4.337   3.765
 3003SOL     OW11015   0.231   4.013   4.729
 3003SOL    HW111016   0.259   3.990   4.821
 3003SOL    HW211017   0.162   3.946   4.715
 3004SOL     OW11018  11.093   4.105   4.360
 3004SOL    HW111019  11.011   4.133   4.401
 3004SOL    HW211020  11.071   4.017   4.324
 3005SOL     OW11021   0.574   5.018   4.917
 3005SOL    HW111022   0.485   5.007   4.880
 3005SOL    HW211023   0.574   5.112   4.943
 3006SOL     OW11024   1.535   5.259   4.442
 3006SOL    HW111025   1.500   5.228   4.528
 3006SOL    HW211026   1.460   5.251   4.380
 3007SOL     OW11027   1.130   4.402   4.430
 3007SOL    HW111028   1.161   4.491   4.405
 3007SOL    HW211029   1.095   4.418   4.519
 3008SOL     OW11030   1.771   4.329   3.961
 3008SOL    HW111031   1.753   4.327   3.864
 3008SOL    HW211032   1.720   4.252   3.991
 3009SOL     OW11033   0.748   4.889   4.754
 3009SOL    HW111034   0.684   4.929   4.815
 3009SOL    HW211035   0.784   4.968   4.710
 3010SOL     OW11036   0.896   4.470   5.529
 3010SOL    HW111037   0.865   4.535   5.594
 3010SOL    HW211038   0.918   4.525   5.452
 3011SOL     OW11039   0.684   4.739   4.369
 3011SOL    HW111040   0.748   4.724   4.441
 3011SOL    HW211041   0.612   4.787   4.413
 3012SOL     OW11042   0.701   4.882   5.526
 3012SOL    HW111043   0.751   4.964   5.546
 3012SOL    HW211044   0.615   4.915   5.495
 3013SOL     OW11045   0.327   5.150   4.792
 3013SOL    HW111046   0.252   5.119   4.739
 3013SOL    HW211047   0.376   5.205   4.727
 3014SOL     OW11048   1.475   5.234   5.096
 3014SOL    HW111049   1.530   5.313   5.111
 3014SOL    HW211050   1.407   5.243   5.166
 3015SOL     OW11051   0.445   4.103   5.256
 3015SOL    HW111052   0.529   4.060   5.232
 3015SOL    HW211053   0.378   4.046   5.217
 3016SOL     OW11054   1.621   4.172   4.467
 3016SOL    HW111055   1.550   4.202   4.409
 3016SOL    HW211056   1.607   4.228   4.545
 3017SOL     OW11057   0.219   5.397   4.181
 3017SOL    HW111058   0.216   5.473   4.241
 3017SOL    HW211059   0.296   5.419   4.126
 3018SOL     OW11060   1.119   5.072   5.376
 3018SOL    HW111061   1.160   5.076   5.463
 3018SOL    HW211062   1.077   4.984   5.382
 3019SOL     OW11063   0.229   5.131   4.248
 3019SOL    HW111064   0.228   5.227   4.236
 3019SOL    HW211065   0.163   5.119   4.318
 3020SOL     OW11066   0.258   4.841   4.626
 3020SOL    HW111067   0.244   4.757   4.672
 3020SOL    HW211068   0.197   4.901   4.673
 3021SOL     OW11069   0.614   5.532   5.129
 3021SOL    HW111070   0.540   5.504   5.185
 3021SOL    HW211071   0.634   5.621   5.164
 3022SOL     OW11072   0.574   4.715   3.842
 3022SOL    HW111073   0.620   4.771   3.776
 3022SOL    HW211074   0.619   4.743   3.924
 3023SOL     OW11075   1.605   3.831   5.227
 3023SOL    HW111076   1.602   3.908   5.170
 3023SOL    HW211077   1.619   3.871   5.314
 3024SOL     OW11078   0.131   4.365   4.279
 3024SOL    HW111079   0.111   4.271   4.290
 3024SOL    HW211080   0.107   4.402   4.366
 3025SOL     OW11081   1.844   5.462   4.074
 3025SOL    HW111082   1.917   5.447   4.137
 3025SOL    HW211083   1.856   5.555   4.050
 3026SOL     OW11084   0.046   5.316   3.858
 3026SOL    HW111085   0.025   5.221   3.865
 3026SOL    HW211086   0.078   5.338   3.946
 3027SOL     OW11087   1.687   4.620   4.364
 3027SOL    HW111088   1.763   4.592   4.312
 3027SOL    HW211089   1.651   4.690   4.307
 3028SOL     OW11090   1.650   4.832   4.179
 3028SOL    HW111091   1.738   4.835   4.139
 3028SOL    HW211092   1.654   4.905   4.244
 3029SOL     OW11093   0.115   4.460   5.312
 3029SOL    HW111094   0.200   4.502   5.331
 3029SOL    HW211095   0.054   4.535   5.305
 3030SOL     OW11096   0.613   5.121   4.481
 3030SOL    HW111097   0.576   5.033   4.498
 3030SOL    HW211098   0.597   5.126   4.385
 3031SOL     OW11099   1.281   4.951   5.143
 3031SOL    HW111100   1.314   4.879   5.086
 3031SOL    HW211101   1.334   4.939   5.224
 3032SOL     OW11102   0.827   3.718   4.230
 3032SOL    HW111103   0.856   3.811   4.221
 3032SOL    HW211104   0.730   3.729   4.224
 3033SOL     OW11105   0.172   4.717   4.974
 3033SOL    HW111106   0.256   4.668   4.962
 3033SOL    HW211107   0.106   4.656   4.937
 3034SOL     OW11108   1.551   4.680   3.897
 3034SOL    HW111109   1.471   4.633   3.927
 3034SOL    HW211110   1.586   4.714   3.981
 3035SOL     OW11111   1.179   5.526   5.340
 3035SOL    HW111112   1.175   5.589   5.267
 3035SOL    HW211113   1.203   5.443   5.295
 3036SOL     OW11114   0.329   3.954   5.532
 3036SOL    HW111115   0.394   4.019   5.562
 3036SOL    HW211116   0.246   3.987   5.570
 3037SOL     OW11117   1.470   5.150   4.687
 3037SOL    HW111118   1.407   5.168   4.759
 3037SOL    HW211119   1.444   5.059   4.660
 3038SOL     OW11120   1.669   5.456   4.327
 3038SOL    HW111121   1.660   5.418   4.238
 3038SOL    HW211122   1.627   5.386   4.381
 3039SOL     OW11123   0.592   4.439   3.983
 3039SOL    HW111124   0.599   4.531   3.954
 3039SOL    HW211125   0.525   4.444   4.054
 3040SOL     OW11126   1.277   4.051   4.631
 3040SOL    HW111127   1.188   4.023   4.659
 3040SOL    HW211128   1.332   4.018   4.705
 3041SOL     OW11129   1.580   5.362   4.030
 3041SOL    HW111130   1.672   5.391   4.037
 3041SOL    HW211131   1.570   5.359   3.933
 3042SOL     OW11132   0.787   4.351   5.191
 3042SOL    HW111133   0.770   4.310   5.279
 3042SOL    HW211134   0.750   4.284   5.131
 3043SOL     OW11135   1.395   4.206   5.392
 3043SOL    HW111136   1.401   4.264   5.471
 3043SOL    HW211137   1.453   4.132   5.417
 3044SOL     OW11138   0.958   4.609   5.302
 3044SOL    HW111139   0.998   4.528   5.264
 3044SOL    HW211140   0.906   4.642   5.226
 3045SOL     OW11141   0.980   4.123   4.958
 3045SOL    HW111142   0.891   4.134   4.993
 3045SOL    HW211143   0.965   4.078   4.875
 3046SOL     OW11144   1.044   4.405   4.131
 3046SOL    HW111145   1.065   4.425   4.224
 3046SOL    HW211146   0.958   4.357   4.139
 3047SOL     OW11147   0.083   4.526   4.492
 3047SOL    HW111148   0.168   4.517   4.538
 3047SOL    HW211149   0.044   4.600   4.543
 3048SOL     OW11150   0.136   5.547   5.288
 3048SOL    HW111151   0.136   5.531   5.385
 3048SOL    HW211152   0.043   5.563   5.268
 3049SOL     OW11153   0.893   4.111   3.932
 3049SOL    HW111154   0.938   4.164   3.863
 3049SOL    HW211155   0.908   4.022   3.898
 3050SOL     OW11156   1.716   4.318   5.561
 3050SOL    HW111157   1.677   4.393   5.511
 3050SOL    HW211158   1.741   4.259   5.488
 3051SOL     OW11159   1.359   4.876   4.283
 3051SOL    HW111160   1.439   4.865   4.231
 3051SOL    HW211161   1.309   4.940   4.230
 3052SOL     OW11162   0.586   3.930   4.617
 3052SOL    HW111163   0.584   3.938   4.714
 3052SOL    HW211164   0.562   4.019   4.588
 3053SOL     OW11165   0.986   5.166   4.212
 3053SOL    HW111166   0.946   5.227   4.148
 3053SOL    HW211167   0.981   5.217   4.294
 3054SOL     OW11168   0.372   5.542   4.558
 3054SOL    HW111169   0.394   5.449   4.577
 3054SOL    HW211170   0.456   5.585   4.578
 3055SOL     OW11171   1.819   4.770   4.607
 3055SOL    HW111172   1.765   4.762   4.527
 3055SOL    HW211173   1.753   4.762   4.678
 3056SOL     OW11174   1.228   5.282   5.224
 3056SOL    HW111175   1.201   5.217   5.291
 3056SOL    HW211176   1.183   5.245   5.146
 3057SOL     OW11177   0.322   4.670   3.982
 3057SOL    HW111178   0.399   4.689   3.926
 3057SOL    HW211179   0.292   4.585   3.948
 3058SOL     OW11180   1.471   4.483   4.446
 3058SOL    HW111181   1.481   4.443   4.533
 3058SOL    HW211182   1.556   4.530   4.435
 3059SOL     OW11183   0.466   4.990   5.448
 3059SOL    HW111184   0.438   4.992   5.353
 3059SOL    HW211185   0.384   5.015   5.493
 3060SOL     OW11186   1.097   5.495   3.963
 3060SOL    HW111187   1.026   5.443   4.007
 3060SOL    HW211188   1.114   5.443   3.883
 3061SOL     OW11189   0.176   3.995   5.227
 3061SOL    HW111190   0.102   4.048   5.262
 3061SOL    HW211191   0.194   3.936   5.301
 3062SOL     OW11192   1.619   5.088   3.819
 3062SOL    HW111193   1.579   5.172   3.794
 3062SOL    HW211194   1.555   5.023   3.784
 3063SOL     OW11195   0.459   5.457   4.058
 3063SOL    HW111196   0.508   5.515   4.119
 3063SOL    HW211197   0.527   5.433   3.992
 3064SOL     OW11198   1.385   3.846   4.183
 3064SOL    HW111199   1.379   3.804   4.095
 3064SOL    HW211200   1.481   3.856   4.192
 3065SOL     OW11201   0.253   5.513   4.953
 3065SOL    HW111202   0.297   5.434   4.990
 3065SOL    HW211203   0.226   5.483   4.866
 3066SOL     OW11204   0.951   5.423   4.613
 3066SOL    HW111205   1.035   5.376   4.620
 3066SOL    HW211206   0.909   5.376   4.538
 3067SOL     OW11207   0.417   4.417   4.185
 3067SOL    HW111208   0.435   4.322   4.199
 3067SOL    HW211209   0.326   4.422   4.220
 3068SOL     OW11210   1.544   3.984   5.460
 3068SOL    HW111211   1.539   3.990   5.559
 3068SOL    HW211212   1.493   3.903   5.445
 3069SOL     OW11213   0.621   3.855   3.819
 3069SOL    HW111214   0.692   3.794   3.841
 3069SOL    HW211215   0.572   3.806   3.749
 3070SOL     OW11216   0.768   3.992   5.471
 3070SOL    HW111217   0.846   3.934   5.478
 3070SOL    HW211218   0.714   3.963   5.546
 3071SOL     OW11219   0.878   5.262   4.921
 3071SOL    HW111220   0.873   5.234   4.829
 3071SOL    HW211221   0.944   5.202   4.959
 3072SOL     OW11222   1.331   4.324   5.154
 3072SOL    HW111223   1.367   4.289   5.238
 3072SOL    HW211224   1.390   4.400   5.137
 3073SOL     OW11225   0.836   5.126   4.667
 3073SOL    HW111226   0.924   5.112   4.625
 3073SOL    HW211227   0.778   5.135   4.589
 3074SOL     OW11228   0.944   4.251   4.636
 3074SOL    HW111229   0.915   4.239   4.543
 3074SOL    HW211230   0.968   4.160   4.658
 3075SOL     OW11231   0.559   3.772   4.218
 3075SOL    HW111232   0.477   3.774   4.270
 3075SOL    HW211233   0.549   3.854   4.164
 3076SOL     OW11234   1.444   4.902   3.751
 3076SOL    HW111235   1.466   4.824   3.805
 3076SOL    HW211236   1.357   4.930   3.784
 3077SOL     OW11237   0.289   3.775   3.920
 3077SOL    HW111238   0.351   3.842   3.891
 3077SOL    HW211239   0.348   3.710   3.964
 3078SOL     OW11240   0.930   3.975   4.214
 3078SOL    HW111241   0.909   4.028   4.135
 3078SOL    HW211242   1.027   3.988   4.219
 3079SOL     OW11243   1.078   4.404   5.179
 3079SOL    HW111244   1.034   4.319   5.189
 3079SOL    HW211245   1.173   4.380   5.175
 3080SOL     OW11246   1.220   5.312   4.519
 3080SOL    HW111247   1.222   5.365   4.438
 3080SOL    HW211248   1.303   5.336   4.562
 3081SOL     OW11249   0.465   4.890   4.454
 3081SOL    HW111250   0.388   4.869   4.512
 3081SOL    HW211251   0.430   4.864   4.366
 3082SOL     OW11252   1.249   5.531   4.328
 3082SOL    HW111253   1.302   5.600   4.282
 3082SOL    HW211254   1.202   5.583   4.395
 3083SOL     OW11255   1.063   4.254   3.751
 3083SOL    HW111256   1.017   4.337   3.730
 3083SOL    HW211257   1.136   4.280   3.809
 3084SOL     OW11258   0.063   4.297   5.106
 3084SOL    HW111259   0.154   4.287   5.075
 3084SOL    HW211260   0.073   4.364   5.176
 3085SOL     OW11261   0.581   3.944   4.889
 3085SOL    HW111262   0.620   3.866   4.931
 3085SOL    HW211263   0.489   3.941   4.919
 3086SOL     OW11264   0.879   4.187   4.390
 3086SOL    HW111265   0.836   4.234   4.317
 3086SOL    HW211266   0.895   4.100   4.351
 3087SOL     OW11267   1.015   3.788   4.497
 3087SOL    HW111268   0.965   3.777   4.415
 3087SOL    HW211269   0.991   3.710   4.549
 3088SOL     OW11270   1.419   4.901   4.610
 3088SOL    HW111271   1.371   4.821   4.636
 3088SOL    HW211272   1.417   4.893   4.513
 3089SOL     OW11273   1.498   4.321   4.689
 3089SOL    HW111274   1.439   4.246   4.705
 3089SOL    HW211275   1.551   4.324   4.770
 3090SOL     OW11276   1.848   4.544   4.114
 3090SOL    HW111277   1.900   4.487   4.174
 3090SOL    HW211278   1.826   4.479   4.044
 3091SOL     OW11279   0.495   5.146   3.858
 3091SOL    HW111280   0.416   5.118   3.906
 3091SOL    HW211281   0.487   5.099   3.774
 3092SOL     OW11282   1.669   5.011   4.383
 3092SOL    HW111283   1.766   5.018   4.386
 3092SOL    HW211284   1.638   5.099   4.410
 3093SOL     OW11285   1.407   4.323   3.794
 3093SOL    HW111286   1.363   4.290   3.875
 3093SOL    HW211287   1.491   4.277   3.797
 3094SOL     OW11288   0.524   3.970   4.041
 3094SOL    HW111289   0.567   3.932   3.962
 3094SOL    HW211290   0.498   4.057   4.006
 3095SOL     OW11291   1.736   4.955   5.302
 3095SOL    HW111292   1.824   4.917   5.314
 3095SOL    HW211293   1.757   5.050   5.313
 3096SOL     OW11294   1.067   5.092   5.062
 3096SOL    HW111295   0.988   5.053   5.104
 3096SOL    HW211296   1.138   5.038   5.104
 3097SOL     OW11297   1.616   5.349   5.360
 3097SOL    HW111298   1.623   5.387   5.271
 3097SOL    HW211299   1.692   5.288   5.361
 3098SOL     OW11300   1.125   4.949   4.824
 3098SOL    HW111301   1.061   4.982   4.888
 3098SOL    HW211302   1.099   4.994   4.742
 3099SOL     OW11303   1.602   4.824   4.808
 3099SOL    HW111304   1.613   4.888   4.881
 3099SOL    HW211305   1.546   4.875   4.748
 3100SOL     OW11306   0.934   3.827   5.133
 3100SOL    HW111307   0.962   3.813   5.041
 3100SOL    HW211308   1.013   3.868   5.172
 3101SOL     OW11309   0.995   4.839   5.456
 3101SOL    HW111310   0.902   4.857   5.480
 3101SOL    HW211311   0.986   4.762   5.397
 3102SOL     OW11312   0.712   4.781   4.083
 3102SOL    HW111313   0.705   4.762   4.179
 3102SOL    HW211314   0.793   4.729   4.058
 3103SOL     OW11315   0.385   4.545   4.980
 3103SOL    HW111316   0.457   4.550   5.046
 3103SOL    HW211317   0.364   4.450   4.982
 3104SOL     OW11318   1.286   4.114   4.988
 3104SOL    HW111319   1.305   4.191   5.045
 3104SOL    HW211320   1.193   4.127   4.965
 3105SOL     OW11321   0.040   5.297   5.098
 3105SOL    HW111322   0.017   5.372   5.042
 3105SOL    HW211323   0.137   5.303   5.102
 3106SOL     OW11324   0.361   4.814   4.216
 3106SOL    HW111325   0.365   4.889   4.156
 3106SOL    HW211326   0.350   4.739   4.155
 3107SOL     OW11327   0.552   4.268   4.570
 3107SOL    HW111328   0.579   4.328   4.498
 3107SOL    HW211329   0.606   4.298   4.644
 3108SOL     OW11330   1.217   5.066   4.111
 3108SOL    HW111331   1.264   5.143   4.147
 3108SOL    HW211332   1.127   5.083   4.143
 3109SOL     OW11333   1.299   5.194   4.895
 3109SOL    HW111334   1.361   5.196   4.970
 3109SOL    HW211335   1.236   5.125   4.921
 3110SOL     OW11336   1.578   4.330   4.185
 3110SOL    HW111337   1.531   4.383   4.251
 3110SOL    HW211338   1.612   4.398   4.125
 3111SOL     OW11339   0.320   5.245   5.036
 3111SOL    HW111340   0.311   5.198   4.950
 3111SOL    HW211341   0.416   5.260   5.035
 3112SOL     OW11342   0.420   4.460   5.335
 3112SOL    HW111343   0.481   4.501   5.272
 3112SOL    HW211344   0.451   4.369   5.334
 3113SOL     OW11345   1.620   4.506   5.402
 3113SOL    HW111346   1.531   4.544   5.402
 3113SOL    HW211347   1.663   4.558   5.331
 3114SOL     OW11348   0.987   3.837   5.476
 3114SOL    HW111349   1.048   3.910   5.462
 3114SOL    HW211350   1.037   3.764   5.436
 3115SOL     OW11351   0.491   3.744   5.481
 3115SOL    HW111352   0.450   3.686   5.414
 3115SOL    HW211353   0.426   3.818   5.486
 3116SOL     OW11354   0.602   4.609   4.776
 3116SOL    HW111355   0.627   4.702   4.778
 3116SOL    HW211356   0.537   4.602   4.848
 3117SOL     OW11357   1.348   4.587   4.754
 3117SOL    HW111358   1.264   4.550   4.723
 3117SOL    HW211359   1.405   4.509   4.752
 3118SOL     OW11360   1.227   4.242   3.997
 3118SOL    HW111361   1.236   4.172   4.065
 3118SOL    HW211362   1.160   4.299   4.039
 3119SOL     OW11363   0.306   3.919   4.974
 3119SOL    HW111364   0.238   3.945   5.039
 3119SOL    HW211365   0.294   3.821   4.971
 3120SOL     OW11366   0.072   5.034   5.001
 3120SOL    HW111367   0.122   4.986   5.068
 3120SOL    HW211368   0.058   5.121   5.040
 3121SOL     OW11369   0.727   4.365   4.780
 3121SOL    HW111370   0.807   4.352   4.726
 3121SOL    HW211371   0.701   4.457   4.763
 3122SOL     OW11372   1.763   4.670   5.569
 3122SOL    HW111373   1.711   4.610   5.514
 3122SOL    HW211374   1.703   4.685   5.643
 3123SOL     OW11375   0.292   3.771   4.327
 3123SOL    HW111376   0.270   3.864   4.350
 3123SOL    HW211377   0.319   3.737   4.415
 3124SOL     OW11378   1.585   4.092   4.072
 3124SOL    HW111379   1.625   4.026   4.132
 3124SOL    HW211380   1.582   4.173   4.128
 3125SOL     OW11381   1.066   4.478   4.696
 3125SOL    HW111382   1.035   4.496   4.786
 3125SOL    HW211383   1.031   4.387   4.682
 3126SOL     OW11384   0.985   5.299   5.430
 3126SOL    HW111385   0.967   5.351   5.349
 3126SOL    HW211386   1.012   5.213   5.392
 3127SOL     OW11387   1.850   5.213   5.328
 3127SOL    HW111388   1.875   5.241   5.238
 3127SOL    HW211389   1.923   5.248   5.382
 3128SOL     OW11390   0.353   4.612   5.544
 3128SOL    HW111391   0.438   4.628   5.587
 3128SOL    HW211392   0.377   4.547   5.476
 3129SOL     OW11393   1.506   3.973   3.850
 3129SOL    HW111394   1.434   3.917   3.884
 3129SOL    HW211395   1.539   4.017   3.931
 3130SOL     OW11396   1.303   4.566   3.751
 3130SOL    HW111397   1.346   4.479   3.759
 3130SOL    HW211398   1.325   4.588   3.658
 3131SOL     OW11399   1.071   5.084   4.571
 3131SOL    HW111400   1.082   5.009   4.510
 3131SOL    HW211401   1.136   5.150   4.539
 3132SOL     OW11402   0.284   4.553   4.679
 3132SOL    HW111403   0.374   4.576   4.653
 3132SOL    HW211404   0.298   4.470   4.728
 3133SOL     OW11405   0.335   4.272   4.724
 3133SOL    HW111406   0.297   4.183   4.711
 3133SOL    HW211407   0.406   4.273   4.656
 3134SOL     OW11408   1.157   4.088   5.422
 3134SOL    HW111409   1.109   4.142   5.488
 3134SOL    HW211410   1.243   4.135   5.419
 3135SOL     OW11411   1.170   3.924   5.209
 3135SOL    HW111412   1.172   3.989   5.283
 3135SOL    HW211413   1.218   3.971   5.139
 3136SOL     OW11414  11.089   5.049   3.923
 3136SOL    HW111415  10.994   5.046   3.909
 3136SOL    HW211416   0.004   4.962   3.965
 3137SOL     OW11417   0.140   5.522   4.684
 3137SOL    HW111418   0.099   5.468   4.614
 3137SOL    HW211419   0.225   5.544   4.642
 3138SOL     OW11420   0.491   5.309   4.635
 3138SOL    HW111421   0.565   5.372   4.643
 3138SOL    HW211422   0.531   5.238   4.583
 3139SOL     OW11423   0.954   4.491   4.949
 3139SOL    HW111424   1.004   4.461   5.028
 3139SOL    HW211425   0.864   4.464   4.972
 3140SOL     OW11426  11.094   4.306   4.818
 3140SOL    HW111427   0.069   4.267   4.773
 3140SOL    HW211428   0.014   4.290   4.911
 3141SOL     OW11429   0.205   4.251   5.466
 3141SOL    HW111430   0.259   4.203   5.401
 3141SOL    HW211431   0.167   4.322   5.410
 3142SOL     OW11432   1.377   4.634   5.378
 3142SOL    HW111433   1.396   4.729   5.378
 3142SOL    HW211434   1.369   4.614   5.283
 3143SOL     OW11435   0.798   4.285   4.125
 3143SOL    HW111436   0.819   4.228   4.048
 3143SOL    HW211437   0.721   4.334   4.093
 3144SOL     OW11438   1.644   4.346   4.926
 3144SOL    HW111439   1.625   4.279   4.992
 3144SOL    HW211440   1.728   4.313   4.888
 3145SOL     OW11441   0.264   5.266   5.448
 3145SOL    HW111442   0.232   5.338   5.505
 3145SOL    HW211443   0.245   5.187   5.502
 3146SOL     OW11444   0.685   4.195   4.993
 3146SOL    HW111445   0.646   4.115   4.955
 3146SOL    HW211446   0.688   4.256   4.916
 3147SOL     OW11447   0.909   5.418   5.205
 3147SOL    HW111448   0.895   5.387   5.115
 3147SOL    HW211449   0.911   5.515   5.193
 3148SOL     OW11450   0.456   4.207   3.918
 3148SOL    HW111451   0.524   4.277   3.922
 3148SOL    HW211452   0.375   4.261   3.916
 3149SOL     OW11453   0.164   4.852   5.215
 3149SOL    HW111454   0.171   4.793   5.293
 3149SOL    HW211455   0.168   4.791   5.139
 3150SOL     OW11456   1.322   4.768   4.954
 3150SOL    HW111457   1.338   4.707   4.880
 3150SOL    HW211458   1.255   4.827   4.915
 3151SOL     OW11459   1.316   4.582   4.021
 3151SOL    HW111460   1.235   4.549   4.063
 3151SOL    HW211461   1.294   4.578   3.926
 3152SOL     OW11462   1.755   5.474   4.853
 3152SOL    HW111463   1.828   5.500   4.794
 3152SOL    HW211464   1.746   5.378   4.833
 3153SOL     OW11465   1.245   5.451   4.839
 3153SOL    HW111466   1.332   5.470   4.800
 3153SOL    HW211467   1.250   5.355   4.852
 3154SOL     OW11468   0.083   5.014   4.731
 3154SOL    HW111469   0.085   5.029   4.828
 3154SOL    HW211470   0.009   4.954   4.723
 3155SOL     OW11471   0.681   5.368   5.466
 3155SOL    HW111472   0.633   5.451   5.456
 3155SOL    HW211473   0.759   5.383   5.410
 3156SOL     OW11474   1.679   3.859   4.218
 3156SOL    HW111475   1.751   3.850   4.154
 3156SOL    HW211476   1.683   3.775   4.268
 3157SOL     OW11477   1.365   5.300   4.210
 3157SOL    HW111478   1.423   5.315   4.133
 3157SOL    HW211479   1.325   5.388   4.224
 3158SOL     OW11480   0.168   5.511   5.562
 3158SOL    HW111481   0.112   5.448   5.611
 3158SOL    HW211482   0.213   5.557   5.634
 3159SOL     OW11483   1.250   4.642   4.386
 3159SOL    HW111484   1.332   4.593   4.408
 3159SOL    HW211485   1.286   4.722   4.343
 3160SOL     OW11486   0.810   4.983   5.157
 3160SOL    HW111487   0.785   5.035   5.235
 3160SOL    HW211488   0.734   4.999   5.098
 3161SOL     OW11489   0.676   5.338   3.883
 3161SOL    HW111490   0.684   5.353   3.787
 3161SOL    HW211491   0.617   5.259   3.883
 3162SOL     OW11492   1.632   5.456   5.116
 3162SOL    HW111493   1.669   5.471   5.028
 3162SOL    HW211494   1.616   5.547   5.149
 3163SOL     OW11495   1.842   3.883   4.699
 3163SOL    HW111496   1.866   3.796   4.663
 3163SOL    HW211497   1.754   3.900   4.659
 3164SOL     OW11498   0.250   4.014   4.427
 3164SOL    HW111499   0.160   4.049   4.415
 3164SOL    HW211500   0.262   4.021   4.523
 3165SOL     OW11501   1.186   5.345   3.752
 3165SOL    HW111502   1.198   5.250   3.763
 3165SOL    HW211503   1.127   5.351   3.674
 3166SOL     OW11504   0.810   4.720   5.104
 3166SOL    HW111505   0.843   4.724   5.014
 3166SOL    HW211506   0.817   4.813   5.135
 3167SOL     OW11507   0.920   4.639   3.998
 3167SOL    HW111508   0.994   4.675   3.945
 3167SOL    HW211509   0.956   4.557   4.035
 3168SOL     OW11510   1.551   5.353   3.757
 3168SOL    HW111511   1.455   5.362   3.755
 3168SOL    HW211512   1.573   5.353   3.661
 3169SOL     OW11513   0.382   5.004   5.198
 3169SOL    HW111514   0.354   5.085   5.154
 3169SOL    HW211515   0.304   4.946   5.193
 3170SOL     OW11516   1.606   5.035   4.986
 3170SOL    HW111517   1.650   5.007   5.067
 3170SOL    HW211518   1.549   5.107   5.019
 3171SOL     OW11519   1.029   4.844   4.435
 3171SOL    HW111520   0.966   4.788   4.484
 3171SOL    HW211521   1.091   4.778   4.399
 3172SOL     OW11522   1.034   3.951   4.714
 3172SOL    HW111523   1.020   3.907   4.628
 3172SOL    HW211524   1.035   3.875   4.774
 3173SOL     OW11525   0.588   5.169   4.207
 3173SOL    HW111526   0.654   5.150   4.138
 3173SOL    HW211527   0.528   5.230   4.164
 3174SOL     OW11528   1.712   4.093   5.101
 3174SOL    HW111529   1.782   4.162   5.098
 3174SOL    HW211530   1.755   4.022   5.047
 3175SOL     OW11531   0.248   5.083   3.988
 3175SOL    HW111532   0.152   5.096   3.977
 3175SOL    HW211533   0.256   5.095   4.085
 3176SOL     OW11534   0.130   4.724   5.466
 3176SOL    HW111535   0.062   4.683   5.519
 3176SOL    HW211536   0.213   4.685   5.503
 3177SOL     OW11537   0.688   3.921   5.208
 3177SOL    HW111538   0.777   3.886   5.186
 3177SOL    HW211539   0.702   3.955   5.298
 3178SOL     OW11540   0.092   4.058   3.777
 3178SOL    HW111541   0.007   4.044   3.735
 3178SOL    HW211542   0.124   4.137   3.729
 3179SOL     OW11543   1.452   4.583   5.115
 3179SOL    HW111544   1.410   4.647   5.054
 3179SOL    HW211545   1.546   4.603   5.102
 3180SOL     OW11546   0.072   3.899   4.032
 3180SOL    HW111547   0.071   3.971   3.967
 3180SOL    HW211548   0.153   3.851   4.007
 3181SOL     OW11549   1.210   5.063   3.834
 3181SOL    HW111550   1.124   5.019   3.839
 3181SOL    HW211551   1.230   5.076   3.928
 3182SOL     OW11552   0.608   4.543   5.147
 3182SOL    HW111553   0.667   4.620   5.139
 3182SOL    HW211554   0.675   4.474   5.165
 3183SOL     OW11555   1.513   5.485   4.688
 3183SOL    HW111556   1.547   5.523   4.606
 3183SOL    HW211557   1.593   5.479   4.742
 3184SOL     OW11558   0.725   4.264   5.437
 3184SOL    HW111559   0.772   4.326   5.494
 3184SOL    HW211560   0.745   4.177   5.474
 3185SOL     OW11561   1.458   4.904   5.351
 3185SOL    HW111562   1.453   4.909   5.449
 3185SOL    HW211563   1.553   4.919   5.336
 3186SOL     OW11564   0.390   5.457   5.283
 3186SOL    HW111565   0.304   5.503   5.269
 3186SOL    HW211566   0.359   5.373   5.321
 3187SOL     OW11567   1.705   4.610   4.962
 3187SOL    HW111568   1.683   4.520   4.931
 3187SOL    HW211569   1.657   4.669   4.900
 3188SOL     OW11570   1.213   4.056   4.200
 3188SOL    HW111571   1.275   3.981   4.194
 3188SOL    HW211572   1.251   4.107   4.275
 3189SOL     OW11573   0.607   4.464   4.377
 3189SOL    HW111574   0.639   4.556   4.370
 3189SOL    HW211575   0.539   4.460   4.307
 3190SOL     OW11576   1.765   4.107   5.363
 3190SOL    HW111577   1.734   4.111   5.270
 3190SOL    HW211578   1.691   4.059   5.405
 3191SOL     OW11579   1.735   4.670   5.226
 3191SOL    HW111580   1.740   4.767   5.227
 3191SOL    HW211581   1.750   4.649   5.132
 3192SOL     OW11582   0.866   5.083   3.752
 3192SOL    HW111583   0.844   5.101   3.844
 3192SOL    HW211584   0.896   5.168   3.717
 3193SOL     OW11585   0.656   5.531   4.620
 3193SOL    HW111586   0.653   5.629   4.615
 3193SOL    HW211587   0.749   5.513   4.639
 3194SOL     OW11588   0.873   4.672   4.574
 3194SOL    HW111589   0.924   4.599   4.613
 3194SOL    HW211590   0.849   4.727   4.651
 3195SOL     OW11591   1.103   4.732   3.820
 3195SOL    HW111592   1.072   4.777   3.739
 3195SOL    HW211593   1.171   4.671   3.785
 3196SOL     OW11594   1.871   5.286   4.561
 3196SOL    HW111595   1.778   5.285   4.536
 3196SOL    HW211596   1.876   5.216   4.628
 3197SOL     OW11597   0.221   5.028   5.573
 3197SOL    HW111598   0.177   4.945   5.550
 3197SOL    HW211599   0.220   5.025   5.671
 3198SOL     OW11600   0.083   4.951   4.402
 3198SOL    HW111601   0.135   4.922   4.477
 3198SOL    HW211602   0.141   4.929   4.328
 3199SOL     OW11603   0.669   5.128   5.342
 3199SOL    HW111604   0.593   5.075   5.370
 3199SOL    HW211605   0.659   5.210   5.395
 3200SOL     OW11606   1.820   3.892   4.959
 3200SOL    HW111607   1.836   3.797   4.970
 3200SOL    HW211608   1.828   3.901   4.862
 3201SOL     OW11609   0.426   4.152   4.249
 3201SOL    HW111610   0.468   4.085   4.193
 3201SOL    HW211611   0.378   4.100   4.315
 3202SOL     OW11612   1.719   5.217   4.803
 3202SOL    HW111613   1.634   5.191   4.763
 3202SOL    HW211614   1.721   5.157   4.879
 3203SOL     OW11615   0.327   4.270   4.999
 3203SOL    HW111616   0.385   4.205   5.041
 3203SOL    HW211617   0.336   4.249   4.904
 3204SOL     OW11618   0.826   5.321   4.394
 3204SOL    HW111619   0.802   5.381   4.321
 3204SOL    HW211620   0.748   5.265   4.405
 3205SOL     OW11621   1.429   3.966   4.824
 3205SOL    HW111622   1.479   3.897   4.870
 3205SOL    HW211623   1.383   4.014   4.896
 3206SOL     OW11624   1.019   3.731   4.878
 3206SOL    HW111625   0.962   3.659   4.851
 3206SOL    HW211626   1.108   3.688   4.873
 3207SOL     OW11627   0.795   5.060   4.036
 3207SOL    HW111628   0.760   4.970   4.041
 3207SOL    HW211629   0.861   5.060   4.107
 3208SOL     OW11630   0.595   5.279   4.998
 3208SOL    HW111631   0.596   5.369   5.036
 3208SOL    HW211632   0.689   5.269   4.979
 3209SOL     OW11633   1.319   3.757   3.918
 3209SOL    HW111634   1.334   3.705   3.839
 3209SOL    HW211635   1.229   3.728   3.943
 3210SOL     OW11636   1.310   4.202   4.407
 3210SOL    HW111637   1.248   4.277   4.409
 3210SOL    HW211638   1.287   4.154   4.489
 3211SOL     OW11639   1.603   3.919   4.591
 3211SOL    HW111640   1.525   3.937   4.645
 3211SOL    HW211641   1.606   3.997   4.533
 3212SOL     OW11642   0.047   4.800   4.025
 3212SOL    HW111643   0.142   4.798   4.011
 3212SOL    HW211644   0.029   4.706   4.041
 3213SOL     OW11645   0.883   5.373   4.060
 3213SOL    HW111646   0.810   5.360   3.996
 3213SOL    HW211647   0.860   5.457   4.103
 3214SOL     OW11648   0.244   4.370   5.714
 3214SOL    HW111649   0.160   4.348   5.758
 3214SOL    HW211650   0.235   4.331   5.625
 3215SOL     OW11651   0.237   4.024   6.589
 3215SOL    HW111652   0.271   4.006   6.680
 3215SOL    HW211653   0.174   3.951   6.580
 3216SOL     OW11654  11.095   4.096   6.233
 3216SOL    HW111655  11.014   4.139   6.262
 3216SOL    HW211656  11.064   4.010   6.198
 3217SOL     OW11657   0.576   5.020   6.784
 3217SOL    HW111658   0.496   5.022   6.729
 3217SOL    HW211659   0.575   5.111   6.819
 3218SOL     OW11660   1.506   5.266   6.296
 3218SOL    HW111661   1.485   5.219   6.379
 3218SOL    HW211662   1.435   5.246   6.234
 3219SOL     OW11663   1.127   4.407   6.293
 3219SOL    HW111664   1.163   4.495   6.269
 3219SOL    HW211665   1.091   4.423   6.381
 3220SOL     OW11666   1.774   4.335   5.824
 3220SOL    HW111667   1.755   4.327   5.728
 3220SOL    HW211668   1.714   4.270   5.863
 3221SOL     OW11669   0.743   4.889   6.613
 3221SOL    HW111670   0.680   4.934   6.673
 3221SOL    HW211671   0.783   4.966   6.569
 3222SOL     OW11672   0.887   4.556   7.424
 3222SOL    HW111673   0.798   4.583   7.452
 3222SOL    HW211674   0.881   4.557   7.327
 3223SOL     OW11675   0.682   4.737   6.223
 3223SOL    HW111676   0.744   4.722   6.296
 3223SOL    HW211677   0.611   4.789   6.264
 3224SOL     OW11678   0.705   4.887   7.389
 3224SOL    HW111679   0.750   4.969   7.415
 3224SOL    HW211680   0.621   4.920   7.353
 3225SOL     OW11681   0.327   5.155   6.655
 3225SOL    HW111682   0.251   5.118   6.607
 3225SOL    HW211683   0.369   5.209   6.586
 3226SOL     OW11684   1.471   5.220   6.959
 3226SOL    HW111685   1.527   5.300   6.966
 3226SOL    HW211686   1.407   5.234   7.030
 3227SOL     OW11687   0.460   4.097   7.149
 3227SOL    HW111688   0.536   4.053   7.108
 3227SOL    HW211689   0.424   4.147   7.073
 3228SOL     OW11690   1.627   4.175   6.329
 3228SOL    HW111691   1.565   4.211   6.263
 3228SOL    HW211692   1.597   4.219   6.410
 3229SOL     OW11693   0.212   5.404   6.046
 3229SOL    HW111694   0.214   5.478   6.109
 3229SOL    HW211695   0.278   5.433   5.982
 3230SOL     OW11696   1.123   5.070   7.250
 3230SOL    HW111697   1.175   5.062   7.331
 3230SOL    HW211698   1.083   4.982   7.244
 3231SOL     OW11699   0.225   5.132   6.095
 3231SOL    HW111700   0.217   5.229   6.091
 3231SOL    HW211701   0.157   5.108   6.160
 3232SOL     OW11702   0.266   4.838   6.492
 3232SOL    HW111703   0.253   4.754   6.538
 3232SOL    HW211704   0.202   4.897   6.535
 3233SOL     OW11705   0.615   5.535   6.992
 3233SOL    HW111706   0.541   5.505   7.049
 3233SOL    HW211707   0.629   5.626   7.023
 3234SOL     OW11708   0.582   4.715   5.705
 3234SOL    HW111709   0.629   4.771   5.639
 3234SOL    HW211710   0.626   4.745   5.787
 3235SOL     OW11711   1.620   3.825   7.088
 3235SOL    HW111712   1.603   3.901   7.031
 3235SOL    HW211713   1.624   3.866   7.176
 3236SOL     OW11714   0.128   4.364   6.143
 3236SOL    HW111715   0.113   4.268   6.154
 3236SOL    HW211716   0.103   4.400   6.230
 3237SOL     OW11717   1.843   5.457   5.938
 3237SOL    HW111718   1.913   5.434   6.003
 3237SOL    HW211719   1.866   5.549   5.919
 3238SOL     OW11720   0.052   5.318   5.708
 3238SOL    HW111721   0.023   5.227   5.727
 3238SOL    HW211722   0.050   5.360   5.794
 3239SOL     OW11723   1.676   4.629   6.211
 3239SOL    HW111724   1.764   4.606   6.179
 3239SOL    HW211725   1.652   4.701   6.151
 3240SOL     OW11726   1.648   4.850   6.038
 3240SOL    HW111727   1.739   4.851   6.003
 3240SOL    HW211728   1.652   4.922   6.103
 3241SOL     OW11729   0.120   4.455   7.178
 3241SOL    HW111730   0.206   4.499   7.187
 3241SOL    HW211731   0.061   4.527   7.151
 3242SOL     OW11732   0.622   5.122   6.344
 3242SOL    HW111733   0.587   5.033   6.365
 3242SOL    HW211734   0.598   5.127   6.250
 3243SOL     OW11735   1.273   4.953   7.007
 3243SOL    HW111736   1.310   4.887   6.945
 3243SOL    HW211737   1.334   4.943   7.083
 3244SOL     OW11738   0.829   3.720   6.088
 3244SOL    HW111739   0.860   3.812   6.076
 3244SOL    HW211740   0.732   3.733   6.089
 3245SOL     OW11741   0.182   4.713   6.833
 3245SOL    HW111742   0.268   4.668   6.822
 3245SOL    HW211743   0.120   4.645   6.805
 3246SOL     OW11744   1.542   4.684   5.766
 3246SOL    HW111745   1.461   4.643   5.803
 3246SOL    HW211746   1.585   4.717   5.846
 3247SOL     OW11747   1.177   5.528   7.203
 3247SOL    HW111748   1.176   5.595   7.133
 3247SOL    HW211749   1.199   5.447   7.154
 3248SOL     OW11750   0.325   3.952   7.414
 3248SOL    HW111751   0.379   4.025   7.381
 3248SOL    HW211752   0.244   3.997   7.444
 3249SOL     OW11753   1.456   5.151   6.536
 3249SOL    HW111754   1.406   5.165   6.619
 3249SOL    HW211755   1.435   5.058   6.514
 3250SOL     OW11756   1.653   5.464   6.184
 3250SOL    HW111757   1.650   5.411   6.104
 3250SOL    HW211758   1.644   5.395   6.252
 3251SOL     OW11759   0.592   4.440   5.845
 3251SOL    HW111760   0.600   4.533   5.816
 3251SOL    HW211761   0.520   4.446   5.911
 3252SOL     OW11762   1.271   4.056   6.496
 3252SOL    HW111763   1.182   4.028   6.524
 3252SOL    HW211764   1.327   4.019   6.567
 3253SOL     OW11765   1.570   5.368   5.890
 3253SOL    HW111766   1.663   5.396   5.903
 3253SOL    HW211767   1.570   5.357   5.793
 3254SOL     OW11768   0.803   4.358   7.051
 3254SOL    HW111769   0.793   4.317   7.140
 3254SOL    HW211770   0.769   4.288   6.992
 3255SOL     OW11771   1.391   4.208   7.256
 3255SOL    HW111772   1.390   4.263   7.336
 3255SOL    HW211773   1.443   4.131   7.284
 3256SOL     OW11774   0.952   4.604   7.164
 3256SOL    HW111775   0.990   4.522   7.126
 3256SOL    HW211776   0.910   4.644   7.084
 3257SOL     OW11777   0.989   4.123   6.816
 3257SOL    HW111778   0.898   4.148   6.835
 3257SOL    HW211779   0.978   4.059   6.744
 3258SOL     OW11780   1.038   4.405   5.998
 3258SOL    HW111781   1.061   4.422   6.091
 3258SOL    HW211782   0.954   4.355   6.006
 3259SOL     OW11783   0.087   4.523   6.358
 3259SOL    HW111784   0.170   4.509   6.405
 3259SOL    HW211785   0.052   4.600   6.406
 3260SOL     OW11786   0.131   5.540   7.148
 3260SOL    HW111787   0.129   5.529   7.245
 3260SOL    HW211788   0.045   5.578   7.128
 3261SOL     OW11789   0.887   4.103   5.797
 3261SOL    HW111790   0.931   4.155   5.728
 3261SOL    HW211791   0.898   4.014   5.762
 3262SOL     OW11792   1.744   4.319   7.417
 3262SOL    HW111793   1.707   4.401   7.377
 3262SOL    HW211794   1.724   4.255   7.347
 3263SOL     OW11795   1.365   4.873   6.147
 3263SOL    HW111796   1.445   4.868   6.093
 3263SOL    HW211797   1.313   4.938   6.098
 3264SOL     OW11798   0.592   3.930   6.478
 3264SOL    HW111799   0.589   3.932   6.577
 3264SOL    HW211800   0.573   4.022   6.456
 3265SOL     OW11801   0.983   5.164   6.074
 3265SOL    HW111802   0.947   5.228   6.010
 3265SOL    HW211803   0.994   5.218   6.153
 3266SOL     OW11804   0.373   5.543   6.425
 3266SOL    HW111805   0.400   5.450   6.442
 3266SOL    HW211806   0.456   5.590   6.444
 3267SOL     OW11807   1.809   4.750   6.455
 3267SOL    HW111808   1.749   4.761   6.381
 3267SOL    HW211809   1.752   4.765   6.532
 3268SOL     OW11810   1.220   5.279   7.089
 3268SOL    HW111811   1.190   5.214   7.155
 3268SOL    HW211812   1.183   5.242   7.008
 3269SOL     OW11813   0.323   4.682   5.842
 3269SOL    HW111814   0.394   4.704   5.779
 3269SOL    HW211815   0.295   4.594   5.811
 3270SOL     OW11816   1.486   4.464   6.293
 3270SOL    HW111817   1.490   4.447   6.388
 3270SOL    HW211818   1.563   4.524   6.279
 3271SOL     OW11819   0.466   4.991   7.311
 3271SOL    HW111820   0.439   4.994   7.216
 3271SOL    HW211821   0.380   5.007   7.355
 3272SOL     OW11822   1.096   5.508   5.826
 3272SOL    HW111823   1.030   5.451   5.870
 3272SOL    HW211824   1.118   5.456   5.746
 3273SOL     OW11825   0.169   3.987   7.072
 3273SOL    HW111826   0.129   4.075   7.075
 3273SOL    HW211827   0.203   3.976   7.161
 3274SOL     OW11828   1.618   5.084   5.683
 3274SOL    HW111829   1.579   5.168   5.654
 3274SOL    HW211830   1.558   5.017   5.645
 3275SOL     OW11831   0.455   5.464   5.911
 3275SOL    HW111832   0.503   5.515   5.979
 3275SOL    HW211833   0.526   5.431   5.854
 3276SOL     OW11834   1.401   3.837   6.027
 3276SOL    HW111835   1.397   3.792   5.941
 3276SOL    HW211836   1.497   3.846   6.042
 3277SOL     OW11837   0.258   5.520   6.818
 3277SOL    HW111838   0.299   5.439   6.853
 3277SOL    HW211839   0.232   5.494   6.728
 3278SOL     OW11840   0.955   5.423   6.474
 3278SOL    HW111841   1.042   5.382   6.480
 3278SOL    HW211842   0.915   5.373   6.400
 3279SOL     OW11843   0.408   4.419   6.045
 3279SOL    HW111844   0.426   4.324   6.064
 3279SOL    HW211845   0.318   4.426   6.082
 3280SOL     OW11846   1.542   3.981   7.308
 3280SOL    HW111847   1.542   3.983   7.407
 3280SOL    HW211848   1.483   3.907   7.292
 3281SOL     OW11849   0.630   3.850   5.680
 3281SOL    HW111850   0.700   3.788   5.704
 3281SOL    HW211851   0.583   3.801   5.609
 3282SOL     OW11852   0.769   3.991   7.332
 3282SOL    HW111853   0.846   3.931   7.343
 3282SOL    HW211854   0.710   3.962   7.404
 3283SOL     OW11855   0.876   5.259   6.779
 3283SOL    HW111856   0.872   5.234   6.685
 3283SOL    HW211857   0.942   5.198   6.815
 3284SOL     OW11858   1.333   4.322   7.017
 3284SOL    HW111859   1.367   4.288   7.102
 3284SOL    HW211860   1.389   4.400   7.000
 3285SOL     OW11861   0.839   5.124   6.529
 3285SOL    HW111862   0.925   5.113   6.484
 3285SOL    HW211863   0.779   5.135   6.453
 3286SOL     OW11864   0.945   4.251   6.499
 3286SOL    HW111865   0.918   4.237   6.406
 3286SOL    HW211866   0.961   4.160   6.527
 3287SOL     OW11867   0.563   3.773   6.084
 3287SOL    HW111868   0.485   3.778   6.141
 3287SOL    HW211869   0.551   3.853   6.027
 3288SOL     OW11870   1.444   4.897   5.610
 3288SOL    HW111871   1.469   4.822   5.667
 3288SOL    HW211872   1.360   4.927   5.648
 3289SOL     OW11873   0.290   3.769   5.779
 3289SOL    HW111874   0.355   3.835   5.749
 3289SOL    HW211875   0.347   3.707   5.830
 3290SOL     OW11876   0.929   3.976   6.071
 3290SOL    HW111877   0.910   4.032   5.994
 3290SOL    HW211878   1.026   3.986   6.078
 3291SOL     OW11879   1.080   4.398   7.049
 3291SOL    HW111880   1.024   4.319   7.045
 3291SOL    HW211881   1.171   4.363   7.044
 3292SOL     OW11882   1.221   5.320   6.388
 3292SOL    HW111883   1.225   5.372   6.306
 3292SOL    HW211884   1.310   5.329   6.423
 3293SOL     OW11885   0.465   4.892   6.316
 3293SOL    HW111886   0.392   4.873   6.378
 3293SOL    HW211887   0.427   4.864   6.230
 3294SOL     OW11888   1.257   5.537   6.186
 3294SOL    HW111889   1.310   5.601   6.134
 3294SOL    HW211890   1.221   5.595   6.254
 3295SOL     OW11891   1.060   4.257   5.613
 3295SOL    HW111892   1.012   4.340   5.594
 3295SOL    HW211893   1.133   4.285   5.670
 3296SOL     OW11894   0.053   4.284   6.971
 3296SOL    HW111895   0.146   4.273   6.945
 3296SOL    HW211896   0.062   4.353   7.038
 3297SOL     OW11897   0.580   3.924   6.745
 3297SOL    HW111898   0.617   3.875   6.820
 3297SOL    HW211899   0.490   3.942   6.777
 3298SOL     OW11900   0.883   4.184   6.251
 3298SOL    HW111901   0.834   4.232   6.182
 3298SOL    HW211902   0.895   4.097   6.210
 3299SOL     OW11903   1.006   3.794   6.359
 3299SOL    HW111904   0.955   3.776   6.279
 3299SOL    HW211905   0.982   3.719   6.416
 3300SOL     OW11906   1.415   4.894   6.470
 3300SOL    HW111907   1.348   4.827   6.488
 3300SOL    HW211908   1.422   4.892   6.374
 3301SOL     OW11909   1.502   4.293   6.556
 3301SOL    HW111910   1.431   4.229   6.573
 3301SOL    HW211911   1.546   4.301   6.643
 3302SOL     OW11912   1.851   4.547   5.977
 3302SOL    HW111913   1.902   4.490   6.038
 3302SOL    HW211914   1.829   4.482   5.907
 3303SOL     OW11915   0.497   5.142   5.734
 3303SOL    HW111916   0.415   5.115   5.778
 3303SOL    HW211917   0.497   5.088   5.655
 3304SOL     OW11918   1.670   5.033   6.247
 3304SOL    HW111919   1.767   5.032   6.255
 3304SOL    HW211920   1.649   5.122   6.279
 3305SOL     OW11921   1.413   4.314   5.647
 3305SOL    HW111922   1.368   4.284   5.729
 3305SOL    HW211923   1.505   4.291   5.665
 3306SOL     OW11924   0.527   3.966   5.902
 3306SOL    HW111925   0.569   3.929   5.822
 3306SOL    HW211926   0.501   4.054   5.869
 3307SOL     OW11927   1.732   4.950   7.164
 3307SOL    HW111928   1.824   4.921   7.156
 3307SOL    HW211929   1.746   5.045   7.181
 3308SOL     OW11930   1.061   5.093   6.925
 3308SOL    HW111931   0.985   5.057   6.974
 3308SOL    HW211932   1.136   5.042   6.964
 3309SOL     OW11933   1.608   5.327   7.231
 3309SOL    HW111934   1.615   5.374   7.146
 3309SOL    HW211935   1.694   5.279   7.232
 3310SOL     OW11936   1.134   4.951   6.685
 3310SOL    HW111937   1.068   4.986   6.745
 3310SOL    HW211938   1.112   4.995   6.601
 3311SOL     OW11939   1.600   4.817   6.668
 3311SOL    HW111940   1.611   4.885   6.738
 3311SOL    HW211941   1.536   4.863   6.610
 3312SOL     OW11942   0.941   3.813   6.990
 3312SOL    HW111943   0.956   3.796   6.895
 3312SOL    HW211944   1.023   3.859   7.015
 3313SOL     OW11945   0.995   4.829   7.325
 3313SOL    HW111946   0.911   4.876   7.341
 3313SOL    HW211947   0.971   4.770   7.251
 3314SOL     OW11948   0.712   4.781   5.944
 3314SOL    HW111949   0.697   4.764   6.038
 3314SOL    HW211950   0.793   4.728   5.926
 3315SOL     OW11951   0.406   4.566   6.843
 3315SOL    HW111952   0.480   4.569   6.907
 3315SOL    HW211953   0.385   4.470   6.846
 3316SOL     OW11954   1.285   4.111   6.858
 3316SOL    HW111955   1.300   4.190   6.913
 3316SOL    HW211956   1.195   4.127   6.823
 3317SOL     OW11957   0.029   5.296   6.961
 3317SOL    HW111958   0.002   5.373   6.910
 3317SOL    HW211959   0.123   5.313   6.977
 3318SOL     OW11960   0.363   4.820   6.081
 3318SOL    HW111961   0.373   4.894   6.021
 3318SOL    HW211962   0.343   4.747   6.019
 3319SOL     OW11963   0.549   4.265   6.438
 3319SOL    HW111964   0.582   4.325   6.369
 3319SOL    HW211965   0.600   4.291   6.516
 3320SOL     OW11966   1.217   5.060   5.981
 3320SOL    HW111967   1.263   5.140   6.012
 3320SOL    HW211968   1.127   5.076   6.014
 3321SOL     OW11969   1.297   5.196   6.756
 3321SOL    HW111970   1.361   5.195   6.830
 3321SOL    HW211971   1.236   5.125   6.780
 3322SOL     OW11972   1.586   4.347   6.050
 3322SOL    HW111973   1.540   4.390   6.124
 3322SOL    HW211974   1.615   4.423   5.997
 3323SOL     OW11975   0.322   5.244   6.903
 3323SOL    HW111976   0.311   5.200   6.817
 3323SOL    HW211977   0.419   5.259   6.902
 3324SOL     OW11978   0.433   4.464   7.205
 3324SOL    HW111979   0.497   4.504   7.144
 3324SOL    HW211980   0.421   4.379   7.161
 3325SOL     OW11981   1.628   4.498   7.260
 3325SOL    HW111982   1.537   4.530   7.248
 3325SOL    HW211983   1.674   4.550   7.189
 3326SOL     OW11984   0.989   3.829   7.345
 3326SOL    HW111985   1.049   3.901   7.325
 3326SOL    HW211986   1.034   3.755   7.300
 3327SOL     OW11987   0.484   3.745   7.348
 3327SOL    HW111988   0.450   3.690   7.275
 3327SOL    HW211989   0.417   3.817   7.353
 3328SOL     OW11990   0.612   4.611   6.638
 3328SOL    HW111991   0.629   4.706   6.638
 3328SOL    HW211992   0.542   4.600   6.704
 3329SOL     OW11993   1.349   4.576   6.625
 3329SOL    HW111994   1.267   4.540   6.588
 3329SOL    HW211995   1.409   4.501   6.618
 3330SOL     OW11996   1.232   4.238   5.853
 3330SOL    HW111997   1.235   4.167   5.920
 3330SOL    HW211998   1.165   4.296   5.893
 3331SOL     OW11999   0.307   3.918   6.830
 3331SOL    HW112000   0.255   3.950   6.906
 3331SOL    HW212001   0.288   3.822   6.832
 3332SOL     OW12002   0.064   5.040   6.856
 3332SOL    HW112003   0.125   4.999   6.919
 3332SOL    HW212004   0.045   5.127   6.896
 3333SOL     OW12005   0.734   4.371   6.641
 3333SOL    HW112006   0.807   4.354   6.580
 3333SOL    HW212007   0.703   4.462   6.620
 3334SOL     OW12008   1.763   4.666   7.442
 3334SOL    HW112009   1.707   4.627   7.374
 3334SOL    HW212010   1.703   4.674   7.516
 3335SOL     OW12011   0.293   3.772   6.193
 3335SOL    HW112012   0.272   3.864   6.217
 3335SOL    HW212013   0.316   3.736   6.281
 3336SOL     OW12014   1.589   4.103   5.941
 3336SOL    HW112015   1.633   4.043   6.002
 3336SOL    HW212016   1.584   4.186   5.993
 3337SOL     OW12017   1.070   4.477   6.564
 3337SOL    HW112018   1.038   4.496   6.654
 3337SOL    HW212019   1.033   4.388   6.549
 3338SOL     OW12020   0.978   5.297   7.281
 3338SOL    HW112021   0.960   5.348   7.200
 3338SOL    HW212022   1.004   5.210   7.246
 3339SOL     OW12023   1.847   5.206   7.192
 3339SOL    HW112024   1.863   5.237   7.101
 3339SOL    HW212025   1.926   5.238   7.239
 3340SOL     OW12026   0.350   4.602   7.412
 3340SOL    HW112027   0.435   4.637   7.439
 3340SOL    HW212028   0.376   4.540   7.341
 3341SOL     OW12029   1.510   3.983   5.719
 3341SOL    HW112030   1.432   3.933   5.749
 3341SOL    HW212031   1.543   4.025   5.802
 3342SOL     OW12032   1.295   4.551   5.613
 3342SOL    HW112033   1.348   4.470   5.623
 3342SOL    HW212034   1.321   4.578   5.522
 3343SOL     OW12035   1.075   5.086   6.431
 3343SOL    HW112036   1.091   5.012   6.369
 3343SOL    HW212037   1.141   5.153   6.408
 3344SOL     OW12038   0.285   4.559   6.542
 3344SOL    HW112039   0.376   4.569   6.513
 3344SOL    HW212040   0.281   4.463   6.561
 3345SOL     OW12041   0.290   4.288   6.538
 3345SOL    HW112042   0.270   4.199   6.572
 3345SOL    HW212043   0.380   4.274   6.503
 3346SOL     OW12044   1.157   4.076   7.284
 3346SOL    HW112045   1.109   4.133   7.347
 3346SOL    HW212046   1.243   4.122   7.278
 3347SOL     OW12047   1.167   3.929   7.054
 3347SOL    HW112048   1.162   3.987   7.132
 3347SOL    HW212049   1.219   3.982   6.992
 3348SOL     OW12050  11.089   5.055   5.778
 3348SOL    HW112051  10.998   5.057   5.746
 3348SOL    HW212052  11.092   4.968   5.822
 3349SOL     OW12053   0.139   5.517   6.551
 3349SOL    HW112054   0.098   5.459   6.484
 3349SOL    HW212055   0.223   5.540   6.504
 3350SOL     OW12056   0.492   5.309   6.494
 3350SOL    HW112057   0.566   5.373   6.503
 3350SOL    HW212058   0.534   5.238   6.441
 3351SOL     OW12059   0.965   4.495   6.814
 3351SOL    HW112060   1.018   4.462   6.889
 3351SOL    HW212061   0.877   4.463   6.836
 3352SOL     OW12062  11.091   4.323   6.679
 3352SOL    HW112063   0.066   4.293   6.628
 3352SOL    HW212064   0.011   4.290   6.768
 3353SOL     OW12065   0.219   4.247   7.318
 3353SOL    HW112066   0.277   4.212   7.249
 3353SOL    HW212067   0.171   4.317   7.270
 3354SOL     OW12068   1.385   4.637   7.238
 3354SOL    HW112069   1.410   4.731   7.237
 3354SOL    HW212070   1.380   4.617   7.142
 3355SOL     OW12071   0.791   4.279   5.993
 3355SOL    HW112072   0.809   4.221   5.916
 3355SOL    HW212073   0.716   4.331   5.960
 3356SOL     OW12074   1.633   4.340   6.795
 3356SOL    HW112075   1.611   4.273   6.860
 3356SOL    HW212076   1.716   4.305   6.757
 3357SOL     OW12077   0.256   5.272   7.309
 3357SOL    HW112078   0.224   5.349   7.359
 3357SOL    HW212079   0.245   5.199   7.372
 3358SOL     OW12080   0.717   4.199   6.851
 3358SOL    HW112081   0.629   4.157   6.850
 3358SOL    HW212082   0.709   4.263   6.777
 3359SOL     OW12083   0.896   5.417   7.046
 3359SOL    HW112084   0.882   5.387   6.955
 3359SOL    HW212085   0.890   5.514   7.037
 3360SOL     OW12086   0.461   4.204   5.783
 3360SOL    HW112087   0.526   4.277   5.785
 3360SOL    HW212088   0.378   4.255   5.779
 3361SOL     OW12089   0.167   4.854   7.071
 3361SOL    HW112090   0.183   4.798   7.149
 3361SOL    HW212091   0.174   4.791   6.995
 3362SOL     OW12092   1.321   4.767   6.818
 3362SOL    HW112093   1.340   4.705   6.745
 3362SOL    HW212094   1.257   4.827   6.775
 3363SOL     OW12095   1.313   4.583   5.879
 3363SOL    HW112096   1.233   4.551   5.922
 3363SOL    HW212097   1.290   4.579   5.784
 3364SOL     OW12098   1.768   5.479   6.724
 3364SOL    HW112099   1.839   5.489   6.657
 3364SOL    HW212100   1.747   5.383   6.712
 3365SOL     OW12101   1.239   5.453   6.701
 3365SOL    HW112102   1.325   5.480   6.668
 3365SOL    HW212103   1.250   5.357   6.716
 3366SOL     OW12104   0.090   5.019   6.592
 3366SOL    HW112105   0.087   5.032   6.690
 3366SOL    HW212106   0.022   4.952   6.579
 3367SOL     OW12107   0.678   5.374   7.335
 3367SOL    HW112108   0.622   5.453   7.327
 3367SOL    HW212109   0.751   5.394   7.275
 3368SOL     OW12110   1.686   3.847   6.092
 3368SOL    HW112111   1.756   3.841   6.026
 3368SOL    HW212112   1.692   3.761   6.139
 3369SOL     OW12113   1.349   5.294   6.056
 3369SOL    HW112114   1.421   5.307   5.992
 3369SOL    HW212115   1.326   5.385   6.081
 3370SOL     OW12116   0.166   5.514   7.432
 3370SOL    HW112117   0.109   5.453   7.483
 3370SOL    HW212118   0.215   5.558   7.504
 3371SOL     OW12119   1.258   4.639   6.246
 3371SOL    HW112120   1.340   4.589   6.261
 3371SOL    HW212121   1.292   4.720   6.204
 3372SOL     OW12122   0.804   4.985   7.028
 3372SOL    HW112123   0.768   5.040   7.101
 3372SOL    HW212124   0.735   4.998   6.961
 3373SOL     OW12125   0.676   5.343   5.744
 3373SOL    HW112126   0.681   5.353   5.647
 3373SOL    HW212127   0.621   5.262   5.751
 3374SOL     OW12128   1.619   5.444   6.978
 3374SOL    HW112129   1.669   5.456   6.895
 3374SOL    HW212130   1.611   5.535   7.011
 3375SOL     OW12131   1.843   3.897   6.568
 3375SOL    HW112132   1.859   3.808   6.533
 3375SOL    HW212133   1.755   3.919   6.529
 3376SOL     OW12134   0.260   4.020   6.288
 3376SOL    HW112135   0.166   4.045   6.279
 3376SOL    HW212136   0.275   4.035   6.383
 3377SOL     OW12137   1.177   5.358   5.617
 3377SOL    HW112138   1.193   5.263   5.631
 3377SOL    HW212139   1.117   5.359   5.540
 3378SOL     OW12140   0.823   4.725   6.968
 3378SOL    HW112141   0.840   4.730   6.873
 3378SOL    HW212142   0.823   4.819   6.996
 3379SOL     OW12143   0.922   4.641   5.862
 3379SOL    HW112144   0.996   4.675   5.807
 3379SOL    HW212145   0.957   4.558   5.898
 3380SOL     OW12146   1.547   5.344   5.617
 3380SOL    HW112147   1.452   5.362   5.616
 3380SOL    HW212148   1.570   5.350   5.522
 3381SOL     OW12149   0.383   5.011   7.062
 3381SOL    HW112150   0.350   5.092   7.020
 3381SOL    HW212151   0.306   4.951   7.055
 3382SOL     OW12152   1.608   5.026   6.843
 3382SOL    HW112153   1.685   5.020   6.901
 3382SOL    HW212154   1.554   5.096   6.886
 3383SOL     OW12155   1.035   4.843   6.295
 3383SOL    HW112156   0.971   4.790   6.347
 3383SOL    HW212157   1.094   4.775   6.261
 3384SOL     OW12158   1.036   3.953   6.578
 3384SOL    HW112159   1.015   3.915   6.490
 3384SOL    HW212160   1.032   3.873   6.634
 3385SOL     OW12161   0.593   5.170   6.068
 3385SOL    HW112162   0.657   5.150   5.999
 3385SOL    HW212163   0.524   5.218   6.022
 3386SOL     OW12164   1.708   4.096   6.958
 3386SOL    HW112165   1.773   4.168   6.950
 3386SOL    HW212166   1.751   4.024   6.906
 3387SOL     OW12167   0.245   5.074   5.843
 3387SOL    HW112168   0.149   5.088   5.830
 3387SOL    HW212169   0.253   5.090   5.940
 3388SOL     OW12170   0.146   4.739   7.333
 3388SOL    HW112171   0.072   4.690   7.371
 3388SOL    HW212172   0.223   4.687   7.365
 3389SOL     OW12173   0.704   3.925   7.062
 3389SOL    HW112174   0.793   3.896   7.033
 3389SOL    HW212175   0.719   3.952   7.154
 3390SOL     OW12176   0.093   4.054   5.633
 3390SOL    HW112177   0.002   4.048   5.603
 3390SOL    HW212178   0.124   4.133   5.585
 3391SOL     OW12179   1.455   4.586   6.979
 3391SOL    HW112180   1.413   4.650   6.918
 3391SOL    HW212181   1.548   4.596   6.954
 3392SOL     OW12182   0.071   3.893   5.890
 3392SOL    HW112183   0.071   3.965   5.825
 3392SOL    HW212184   0.152   3.844   5.865
 3393SOL     OW12185   1.211   5.073   5.702
 3393SOL    HW112186   1.127   5.026   5.708
 3393SOL    HW212187   1.236   5.078   5.797
 3394SOL     OW12188   0.619   4.550   7.009
 3394SOL    HW112189   0.682   4.624   7.004
 3394SOL    HW212190   0.682   4.476   7.019
 3395SOL     OW12191   1.514   5.523   6.555
 3395SOL    HW112192   1.543   5.538   6.464
 3395SOL    HW212193   1.594   5.485   6.595
 3396SOL     OW12194   0.763   4.262   7.298
 3396SOL    HW112195   0.723   4.293   7.380
 3396SOL    HW212196   0.746   4.166   7.300
 3397SOL     OW12197   1.462   4.906   7.202
 3397SOL    HW112198   1.459   4.910   7.299
 3397SOL    HW212199   1.556   4.925   7.183
 3398SOL     OW12200   0.388   5.456   7.145
 3398SOL    HW112201   0.301   5.498   7.127
 3398SOL    HW212202   0.359   5.375   7.190
 3399SOL     OW12203   1.698   4.609   6.830
 3399SOL    HW112204   1.679   4.525   6.784
 3399SOL    HW212205   1.663   4.677   6.769
 3400SOL     OW12206   1.208   4.048   6.060
 3400SOL    HW112207   1.277   3.980   6.052
 3400SOL    HW212208   1.242   4.103   6.134
 3401SOL     OW12209   0.610   4.463   6.235
 3401SOL    HW112210   0.634   4.557   6.231
 3401SOL    HW212211   0.542   4.455   6.167
 3402SOL     OW12212   1.758   4.112   7.215
 3402SOL    HW112213   1.723   4.107   7.124
 3402SOL    HW212214   1.692   4.058   7.262
 3403SOL     OW12215   1.746   4.662   7.088
 3403SOL    HW112216   1.749   4.759   7.083
 3403SOL    HW212217   1.755   4.638   6.994
 3404SOL     OW12218   0.869   5.085   5.614
 3404SOL    HW112219   0.845   5.096   5.708
 3404SOL    HW212220   0.893   5.175   5.586
 3405SOL     OW12221   0.661   5.534   6.480
 3405SOL    HW112222   0.657   5.632   6.479
 3405SOL    HW212223   0.755   5.516   6.494
 3406SOL     OW12224   0.868   4.673   6.434
 3406SOL    HW112225   0.914   4.600   6.478
 3406SOL    HW212226   0.840   4.728   6.509
 3407SOL     OW12227   1.101   4.726   5.675
 3407SOL    HW112228   1.065   4.776   5.600
 3407SOL    HW212229   1.156   4.659   5.631
 3408SOL     OW12230   0.234   5.026   7.440
 3408SOL    HW112231   0.187   4.949   7.405
 3408SOL    HW212232   0.216   5.018   7.535
 3409SOL     OW12233   0.086   4.953   6.249
 3409SOL    HW112234   0.109   4.905   6.329
 3409SOL    HW212235   0.155   4.925   6.188
 3410SOL     OW12236   0.671   5.132   7.207
 3410SOL    HW112237   0.590   5.083   7.231
 3410SOL    HW212238   0.661   5.215   7.257
 3411SOL     OW12239   1.827   3.888   6.829
 3411SOL    HW112240   1.832   3.791   6.833
 3411SOL    HW212241   1.835   3.902   6.732
 3412SOL     OW12242   0.427   4.154   6.113
 3412SOL    HW112243   0.466   4.082   6.062
 3412SOL    HW212244   0.379   4.108   6.184
 3413SOL     OW12245   1.706   5.231   6.692
 3413SOL    HW112246   1.649   5.205   6.618
 3413SOL    HW212247   1.702   5.152   6.747
 3414SOL     OW12248   0.828   5.320   6.259
 3414SOL    HW112249   0.808   5.370   6.179
 3414SOL    HW212250   0.749   5.264   6.271
 3415SOL     OW12251   1.438   3.977   6.687
 3415SOL    HW112252   1.466   3.895   6.729
 3415SOL    HW212253   1.384   4.020   6.757
 3416SOL     OW12254   1.011   3.727   6.733
 3416SOL    HW112255   0.955   3.654   6.706
 3416SOL    HW212256   1.099   3.683   6.737
 3417SOL     OW12257   0.794   5.059   5.897
 3417SOL    HW112258   0.765   4.966   5.903
 3417SOL    HW212259   0.858   5.063   5.970
 3418SOL     OW12260   0.595   5.280   6.861
 3418SOL    HW112261   0.596   5.367   6.905
 3418SOL    HW212262   0.687   5.275   6.831
 3419SOL     OW12263   1.323   3.772   5.761
 3419SOL    HW112264   1.332   3.702   5.696
 3419SOL    HW212265   1.235   3.751   5.800
 3420SOL     OW12266   1.291   4.194   6.262
 3420SOL    HW112267   1.233   4.272   6.264
 3420SOL    HW212268   1.276   4.153   6.349
 3421SOL     OW12269   1.601   3.929   6.458
 3421SOL    HW112270   1.526   3.947   6.517
 3421SOL    HW212271   1.599   4.005   6.398
 3422SOL     OW12272   0.044   4.805   5.884
 3422SOL    HW112273   0.139   4.813   5.869
 3422SOL    HW212274   0.035   4.709   5.897
 3423SOL     OW12275   0.887   5.370   5.918
 3423SOL    HW112276   0.816   5.356   5.853
 3423SOL    HW212277   0.861   5.452   5.964
 3424SOL     OW12278   0.247   4.367   7.573
 3424SOL    HW112279   0.159   4.353   7.611
 3424SOL    HW212280   0.238   4.332   7.482
 3425SOL     OW12281   0.229   4.015   8.448
 3425SOL    HW112282   0.262   3.994   8.538
 3425SOL    HW212283   0.157   3.951   8.442
 3426SOL     OW12284  11.100   4.102   8.095
 3426SOL    HW112285  11.020   4.132   8.139
 3426SOL    HW212286  11.077   4.010   8.069
 3427SOL     OW12287   0.577   4.999   8.646
 3427SOL    HW112288   0.483   4.991   8.622
 3427SOL    HW212289   0.582   5.092   8.674
 3428SOL     OW12290   1.528   5.253   8.150
 3428SOL    HW112291   1.486   5.224   8.233
 3428SOL    HW212292   1.455   5.259   8.085
 3429SOL     OW12293   1.117   4.413   8.164
 3429SOL    HW112294   1.167   4.494   8.144
 3429SOL    HW212295   1.085   4.430   8.254
 3430SOL     OW12296   1.784   4.331   7.685
 3430SOL    HW112297   1.753   4.320   7.594
 3430SOL    HW212298   1.736   4.259   7.732
 3431SOL     OW12299   0.731   4.881   8.451
 3431SOL    HW112300   0.679   4.919   8.525
 3431SOL    HW212301   0.778   4.963   8.423
 3432SOL     OW12302   0.887   4.469   9.250
 3432SOL    HW112303   0.863   4.533   9.318
 3432SOL    HW212304   0.914   4.526   9.174
 3433SOL     OW12305   0.685   4.763   8.117
 3433SOL    HW112306   0.764   4.716   8.147
 3433SOL    HW212307   0.664   4.815   8.195
 3434SOL     OW12308   0.711   4.878   9.245
 3434SOL    HW112309   0.750   4.960   9.282
 3434SOL    HW212310   0.624   4.908   9.213
 3435SOL     OW12311   0.330   5.142   8.529
 3435SOL    HW112312   0.249   5.112   8.484
 3435SOL    HW212313   0.370   5.201   8.462
 3436SOL     OW12314   1.469   5.230   8.822
 3436SOL    HW112315   1.526   5.309   8.833
 3436SOL    HW212316   1.407   5.238   8.896
 3437SOL     OW12317   0.468   4.096   8.898
 3437SOL    HW112318   0.534   4.039   8.941
 3437SOL    HW212319   0.384   4.059   8.930
 3438SOL     OW12320   1.602   4.181   8.182
 3438SOL    HW112321   1.566   4.186   8.092
 3438SOL    HW212322   1.625   4.273   8.199
 3439SOL     OW12323   0.214   5.393   7.916
 3439SOL    HW112324   0.205   5.472   7.972
 3439SOL    HW212325   0.277   5.424   7.849
 3440SOL     OW12326   1.131   5.072   9.111
 3440SOL    HW112327   1.174   5.067   9.197
 3440SOL    HW212328   1.084   4.987   9.109
 3441SOL     OW12329   0.255   5.132   7.990
 3441SOL    HW112330   0.253   5.227   7.966
 3441SOL    HW212331   0.173   5.126   8.042
 3442SOL     OW12332   0.276   4.839   8.354
 3442SOL    HW112333   0.269   4.756   8.405
 3442SOL    HW212334   0.207   4.894   8.397
 3443SOL     OW12335   0.603   5.526   8.841
 3443SOL    HW112336   0.538   5.501   8.909
 3443SOL    HW212337   0.624   5.617   8.868
 3444SOL     OW12338   0.587   4.718   7.568
 3444SOL    HW112339   0.627   4.779   7.503
 3444SOL    HW212340   0.622   4.754   7.652
 3445SOL     OW12341   1.607   3.835   8.949
 3445SOL    HW112342   1.605   3.910   8.888
 3445SOL    HW212343   1.619   3.880   9.034
 3446SOL     OW12344   0.137   4.356   8.006
 3446SOL    HW112345   0.109   4.263   8.011
 3446SOL    HW212346   0.102   4.394   8.089
 3447SOL     OW12347   1.852   5.461   7.799
 3447SOL    HW112348   1.924   5.440   7.861
 3447SOL    HW212349   1.871   5.553   7.775
 3448SOL     OW12350   0.043   5.322   7.571
 3448SOL    HW112351   0.014   5.231   7.580
 3448SOL    HW212352   0.024   5.360   7.657
 3449SOL     OW12353   1.671   4.626   8.062
 3449SOL    HW112354   1.761   4.598   8.040
 3449SOL    HW212355   1.654   4.690   7.990
 3450SOL     OW12356   1.643   4.836   7.879
 3450SOL    HW112357   1.734   4.843   7.848
 3450SOL    HW212358   1.643   4.899   7.954
 3451SOL     OW12359   0.119   4.448   9.041
 3451SOL    HW112360   0.206   4.487   9.058
 3451SOL    HW212361   0.063   4.526   9.028
 3452SOL     OW12362   0.595   5.134   8.190
 3452SOL    HW112363   0.658   5.064   8.173
 3452SOL    HW212364   0.567   5.157   8.100
 3453SOL     OW12365   1.280   4.953   8.873
 3453SOL    HW112366   1.320   4.883   8.820
 3453SOL    HW212367   1.328   4.943   8.958
 3454SOL     OW12368   0.181   4.701   8.695
 3454SOL    HW112369   0.262   4.647   8.683
 3454SOL    HW212370   0.110   4.639   8.674
 3455SOL     OW12371   1.538   4.696   7.647
 3455SOL    HW112372   1.458   4.658   7.688
 3455SOL    HW212373   1.585   4.730   7.724
 3456SOL     OW12374   1.170   5.523   9.063
 3456SOL    HW112375   1.172   5.586   8.990
 3456SOL    HW212376   1.198   5.440   9.019
 3457SOL     OW12377   0.327   3.997   9.230
 3457SOL    HW112378   0.376   4.019   9.310
 3457SOL    HW212379   0.262   3.932   9.261
 3458SOL     OW12380   1.461   5.149   8.403
 3458SOL    HW112381   1.403   5.166   8.480
 3458SOL    HW212382   1.435   5.059   8.378
 3459SOL     OW12383   1.663   5.466   8.064
 3459SOL    HW112384   1.657   5.431   7.974
 3459SOL    HW212385   1.627   5.390   8.114
 3460SOL     OW12386   0.588   4.450   7.714
 3460SOL    HW112387   0.589   4.537   7.672
 3460SOL    HW212388   0.514   4.457   7.776
 3461SOL     OW12389   1.259   4.102   8.402
 3461SOL    HW112390   1.173   4.056   8.412
 3461SOL    HW212391   1.319   4.042   8.451
 3462SOL     OW12392   1.579   5.366   7.754
 3462SOL    HW112393   1.669   5.402   7.759
 3462SOL    HW212394   1.565   5.360   7.658
 3463SOL     OW12395   0.795   4.379   8.891
 3463SOL    HW112396   0.779   4.338   8.979
 3463SOL    HW212397   0.753   4.315   8.831
 3464SOL     OW12398   1.392   4.202   9.120
 3464SOL    HW112399   1.402   4.263   9.195
 3464SOL    HW212400   1.451   4.128   9.144
 3465SOL     OW12401   0.967   4.614   9.030
 3465SOL    HW112402   1.007   4.534   8.991
 3465SOL    HW212403   0.915   4.646   8.954
 3466SOL     OW12404   0.974   4.129   8.638
 3466SOL    HW112405   0.939   4.116   8.726
 3466SOL    HW212406   0.970   4.042   8.597
 3467SOL     OW12407   1.040   4.419   7.865
 3467SOL    HW112408   1.057   4.422   7.961
 3467SOL    HW212409   0.959   4.365   7.859
 3468SOL     OW12410   0.081   4.535   8.210
 3468SOL    HW112411   0.161   4.525   8.262
 3468SOL    HW212412   0.040   4.610   8.257
 3469SOL     OW12413   0.133   5.556   9.019
 3469SOL    HW112414   0.132   5.531   9.114
 3469SOL    HW212415   0.039   5.552   8.995
 3470SOL     OW12416   0.893   4.080   7.659
 3470SOL    HW112417   0.929   4.136   7.589
 3470SOL    HW212418   0.896   3.994   7.615
 3471SOL     OW12419   1.714   4.301   9.289
 3471SOL    HW112420   1.677   4.379   9.242
 3471SOL    HW212421   1.748   4.250   9.214
 3472SOL     OW12422   1.360   4.869   8.006
 3472SOL    HW112423   1.439   4.859   7.951
 3472SOL    HW212424   1.310   4.937   7.958
 3473SOL     OW12425   0.584   3.936   8.348
 3473SOL    HW112426   0.577   3.936   8.446
 3473SOL    HW212427   0.556   4.026   8.326
 3474SOL     OW12428   0.979   5.172   7.940
 3474SOL    HW112429   0.955   5.239   7.873
 3474SOL    HW212430   0.962   5.222   8.022
 3475SOL     OW12431   0.381   5.544   8.287
 3475SOL    HW112432   0.411   5.455   8.314
 3475SOL    HW212433   0.462   5.597   8.297
 3476SOL     OW12434   1.811   4.761   8.304
 3476SOL    HW112435   1.744   4.759   8.236
 3476SOL    HW212436   1.759   4.753   8.385
 3477SOL     OW12437   1.223   5.284   8.944
 3477SOL    HW112438   1.200   5.212   9.005
 3477SOL    HW212439   1.178   5.257   8.863
 3478SOL     OW12440   0.322   4.678   7.705
 3478SOL    HW112441   0.390   4.698   7.640
 3478SOL    HW212442   0.287   4.593   7.673
 3479SOL     OW12443   1.459   4.493   8.179
 3479SOL    HW112444   1.474   4.453   8.266
 3479SOL    HW212445   1.545   4.536   8.161
 3480SOL     OW12446   0.471   4.975   9.165
 3480SOL    HW112447   0.441   4.988   9.072
 3480SOL    HW212448   0.389   4.986   9.213
 3481SOL     OW12449   1.110   5.494   7.690
 3481SOL    HW112450   1.036   5.453   7.738
 3481SOL    HW212451   1.109   5.446   7.606
 3482SOL     OW12452   0.181   4.007   8.958
 3482SOL    HW112453   0.101   4.051   8.995
 3482SOL    HW212454   0.200   3.944   9.028
 3483SOL     OW12455   1.625   5.073   7.530
 3483SOL    HW112456   1.582   5.159   7.516
 3483SOL    HW212457   1.562   5.010   7.490
 3484SOL     OW12458   0.455   5.442   7.772
 3484SOL    HW112459   0.492   5.506   7.838
 3484SOL    HW212460   0.530   5.429   7.711
 3485SOL     OW12461   1.425   3.802   7.872
 3485SOL    HW112462   1.419   3.770   7.781
 3485SOL    HW212463   1.492   3.872   7.864
 3486SOL     OW12464   0.260   5.511   8.668
 3486SOL    HW112465   0.294   5.426   8.700
 3486SOL    HW212466   0.217   5.487   8.584
 3487SOL     OW12467   0.956   5.405   8.351
 3487SOL    HW112468   1.048   5.378   8.339
 3487SOL    HW212469   0.915   5.368   8.270
 3488SOL     OW12470   0.416   4.406   7.927
 3488SOL    HW112471   0.439   4.311   7.932
 3488SOL    HW212472   0.322   4.403   7.954
 3489SOL     OW12473   1.542   3.982   9.183
 3489SOL    HW112474   1.537   3.989   9.282
 3489SOL    HW212475   1.493   3.899   9.170
 3490SOL     OW12476   0.646   3.853   7.536
 3490SOL    HW112477   0.711   3.785   7.556
 3490SOL    HW212478   0.586   3.806   7.474
 3491SOL     OW12479   0.758   4.007   9.189
 3491SOL    HW112480   0.837   3.950   9.198
 3491SOL    HW212481   0.705   3.977   9.265
 3492SOL     OW12482   0.881   5.264   8.649
 3492SOL    HW112483   0.877   5.253   8.553
 3492SOL    HW212484   0.943   5.195   8.677
 3493SOL     OW12485   1.336   4.311   8.874
 3493SOL    HW112486   1.372   4.280   8.960
 3493SOL    HW212487   1.390   4.389   8.855
 3494SOL     OW12488   0.836   5.124   8.380
 3494SOL    HW112489   0.927   5.113   8.345
 3494SOL    HW212490   0.795   5.179   8.311
 3495SOL     OW12491   0.913   4.272   8.353
 3495SOL    HW112492   0.905   4.244   8.259
 3495SOL    HW212493   0.927   4.188   8.398
 3496SOL     OW12494   0.581   3.780   7.955
 3496SOL    HW112495   0.492   3.770   7.996
 3496SOL    HW212496   0.561   3.850   7.889
 3497SOL     OW12497   1.441   4.884   7.468
 3497SOL    HW112498   1.469   4.817   7.533
 3497SOL    HW212499   1.364   4.926   7.509
 3498SOL     OW12500   0.277   3.784   7.644
 3498SOL    HW112501   0.330   3.836   7.583
 3498SOL    HW212502   0.343   3.730   7.691
 3499SOL     OW12503   0.936   3.974   7.924
 3499SOL    HW112504   0.917   4.024   7.842
 3499SOL    HW212505   1.033   3.980   7.924
 3500SOL     OW12506   1.084   4.402   8.906
 3500SOL    HW112507   1.032   4.322   8.919
 3500SOL    HW212508   1.176   4.371   8.907
 3501SOL     OW12509   1.216   5.316   8.247
 3501SOL    HW112510   1.220   5.368   8.165
 3501SOL    HW212511   1.302   5.335   8.287
 3502SOL     OW12512   1.265   5.529   8.056
 3502SOL    HW112513   1.310   5.597   8.002
 3502SOL    HW212514   1.205   5.583   8.110
 3503SOL     OW12515   1.056   4.253   7.468
 3503SOL    HW112516   1.007   4.335   7.451
 3503SOL    HW212517   1.119   4.277   7.537
 3504SOL     OW12518   0.055   4.309   8.818
 3504SOL    HW112519   0.147   4.282   8.799
 3504SOL    HW212520   0.066   4.358   8.901
 3505SOL     OW12521   0.577   3.939   8.614
 3505SOL    HW112522   0.617   3.872   8.670
 3505SOL    HW212523   0.486   3.944   8.649
 3506SOL     OW12524   0.879   4.190   8.100
 3506SOL    HW112525   0.827   4.235   8.033
 3506SOL    HW212526   0.907   4.110   8.054
 3507SOL     OW12527   0.959   3.806   8.213
 3507SOL    HW112528   1.038   3.788   8.161
 3507SOL    HW212529   0.955   3.727   8.271
 3508SOL     OW12530   1.420   4.902   8.323
 3508SOL    HW112531   1.356   4.830   8.332
 3508SOL    HW212532   1.439   4.900   8.228
 3509SOL     OW12533   1.455   4.318   8.440
 3509SOL    HW112534   1.410   4.232   8.429
 3509SOL    HW212535   1.528   4.298   8.500
 3510SOL     OW12536   1.845   4.543   7.840
 3510SOL    HW112537   1.897   4.485   7.900
 3510SOL    HW212538   1.825   4.478   7.769
 3511SOL     OW12539   0.482   5.141   7.583
 3511SOL    HW112540   0.405   5.120   7.639
 3511SOL    HW212541   0.455   5.104   7.498
 3512SOL     OW12542   1.662   5.007   8.098
 3512SOL    HW112543   1.758   5.021   8.107
 3512SOL    HW212544   1.625   5.095   8.115
 3513SOL     OW12545   1.391   4.316   7.513
 3513SOL    HW112546   1.345   4.278   7.591
 3513SOL    HW212547   1.482   4.291   7.532
 3514SOL     OW12548   0.529   3.962   7.761
 3514SOL    HW112549   0.562   3.926   7.677
 3514SOL    HW212550   0.497   4.049   7.730
 3515SOL     OW12551   1.732   4.953   9.024
 3515SOL    HW112552   1.820   4.913   9.033
 3515SOL    HW212553   1.754   5.047   9.037
 3516SOL     OW12554   1.060   5.077   8.770
 3516SOL    HW112555   0.981   5.048   8.820
 3516SOL    HW212556   1.131   5.032   8.821
 3517SOL     OW12557   1.617   5.341   9.089
 3517SOL    HW112558   1.616   5.382   9.000
 3517SOL    HW212559   1.699   5.288   9.086
 3518SOL     OW12560   1.093   4.936   8.532
 3518SOL    HW112561   1.064   4.988   8.609
 3518SOL    HW212562   1.085   4.999   8.459
 3519SOL     OW12563   1.602   4.818   8.523
 3519SOL    HW112564   1.611   4.881   8.598
 3519SOL    HW212565   1.543   4.869   8.465
 3520SOL     OW12566   0.918   3.858   8.834
 3520SOL    HW112567   0.956   3.815   8.755
 3520SOL    HW212568   0.999   3.879   8.885
 3521SOL     OW12569   0.995   4.840   9.188
 3521SOL    HW112570   0.900   4.857   9.204
 3521SOL    HW212571   0.993   4.764   9.127
 3522SOL     OW12572   0.710   4.788   7.810
 3522SOL    HW112573   0.688   4.771   7.903
 3522SOL    HW212574   0.788   4.732   7.795
 3523SOL     OW12575   0.397   4.531   8.692
 3523SOL    HW112576   0.459   4.550   8.765
 3523SOL    HW212577   0.376   4.437   8.707
 3524SOL     OW12578   1.272   4.102   8.718
 3524SOL    HW112579   1.296   4.181   8.771
 3524SOL    HW212580   1.195   4.132   8.667
 3525SOL     OW12581   0.032   5.302   8.819
 3525SOL    HW112582  11.099   5.368   8.757
 3525SOL    HW212583   0.126   5.321   8.821
 3526SOL     OW12584   0.365   4.823   7.935
 3526SOL    HW112585   0.390   4.893   7.873
 3526SOL    HW212586   0.342   4.751   7.873
 3527SOL     OW12587   0.586   4.278   8.312
 3527SOL    HW112588   0.588   4.333   8.231
 3527SOL    HW212589   0.538   4.332   8.375
 3528SOL     OW12590   1.217   5.061   7.837
 3528SOL    HW112591   1.264   5.140   7.869
 3528SOL    HW212592   1.127   5.081   7.868
 3529SOL     OW12593   1.301   5.197   8.618
 3529SOL    HW112594   1.364   5.207   8.692
 3529SOL    HW212595   1.234   5.138   8.655
 3530SOL     OW12596   1.571   4.369   7.920
 3530SOL    HW112597   1.553   4.436   7.987
 3530SOL    HW212598   1.624   4.416   7.855
 3531SOL     OW12599   0.324   5.256   8.764
 3531SOL    HW112600   0.318   5.200   8.684
 3531SOL    HW212601   0.421   5.270   8.768
 3532SOL     OW12602   0.414   4.462   9.044
 3532SOL    HW112603   0.480   4.505   8.987
 3532SOL    HW212604   0.446   4.371   9.045
 3533SOL     OW12605   1.630   4.495   9.133
 3533SOL    HW112606   1.540   4.533   9.136
 3533SOL    HW212607   1.668   4.541   9.055
 3534SOL     OW12608   0.977   3.833   9.195
 3534SOL    HW112609   1.045   3.902   9.193
 3534SOL    HW212610   1.028   3.758   9.161
 3535SOL     OW12611   0.504   3.748   9.195
 3535SOL    HW112612   0.463   3.686   9.133
 3535SOL    HW212613   0.429   3.807   9.212
 3536SOL     OW12614   0.622   4.589   8.500
 3536SOL    HW112615   0.630   4.686   8.505
 3536SOL    HW212616   0.554   4.572   8.567
 3537SOL     OW12617   1.347   4.581   8.470
 3537SOL    HW112618   1.273   4.547   8.420
 3537SOL    HW212619   1.402   4.501   8.480
 3538SOL     OW12620   1.228   4.244   7.723
 3538SOL    HW112621   1.249   4.162   7.772
 3538SOL    HW212622   1.169   4.289   7.785
 3539SOL     OW12623   0.307   3.929   8.688
 3539SOL    HW112624   0.243   3.955   8.756
 3539SOL    HW212625   0.292   3.831   8.684
 3540SOL     OW12626   0.077   5.028   8.723
 3540SOL    HW112627   0.113   4.982   8.801
 3540SOL    HW212628   0.050   5.115   8.757
 3541SOL     OW12629   1.771   4.677   9.300
 3541SOL    HW112630   1.726   4.621   9.235
 3541SOL    HW212631   1.704   4.681   9.370
 3542SOL     OW12632   0.313   3.791   8.041
 3542SOL    HW112633   0.284   3.881   8.065
 3542SOL    HW212634   0.321   3.750   8.129
 3543SOL     OW12635   1.056   4.490   8.432
 3543SOL    HW112636   1.050   4.506   8.528
 3543SOL    HW212637   1.054   4.393   8.428
 3544SOL     OW12638   0.972   5.284   9.145
 3544SOL    HW112639   0.953   5.331   9.062
 3544SOL    HW212640   1.015   5.202   9.113
 3545SOL     OW12641   1.853   5.217   9.047
 3545SOL    HW112642   1.877   5.244   8.957
 3545SOL    HW212643   1.933   5.242   9.098
 3546SOL     OW12644   0.348   4.611   9.251
 3546SOL    HW112645   0.430   4.624   9.300
 3546SOL    HW212646   0.374   4.546   9.183
 3547SOL     OW12647   1.499   3.974   7.564
 3547SOL    HW112648   1.433   3.913   7.600
 3547SOL    HW212649   1.554   3.996   7.643
 3548SOL     OW12650   1.287   4.558   7.472
 3548SOL    HW112651   1.329   4.471   7.488
 3548SOL    HW212652   1.330   4.584   7.389
 3549SOL     OW12653   1.082   5.085   8.294
 3549SOL    HW112654   1.094   5.019   8.224
 3549SOL    HW212655   1.143   5.158   8.271
 3550SOL     OW12656   0.296   4.543   8.399
 3550SOL    HW112657   0.390   4.542   8.377
 3550SOL    HW212658   0.288   4.467   8.459
 3551SOL     OW12659   0.337   4.261   8.441
 3551SOL    HW112660   0.286   4.177   8.440
 3551SOL    HW212661   0.387   4.253   8.359
 3552SOL     OW12662   1.157   4.083   9.155
 3552SOL    HW112663   1.110   4.142   9.217
 3552SOL    HW212664   1.244   4.126   9.149
 3553SOL     OW12665   1.158   3.927   8.932
 3553SOL    HW112666   1.165   3.985   9.010
 3553SOL    HW212667   1.215   3.972   8.869
 3554SOL     OW12668  11.092   5.051   7.635
 3554SOL    HW112669  11.003   5.058   7.599
 3554SOL    HW212670  11.089   4.965   7.680
 3555SOL     OW12671   0.143   5.521   8.404
 3555SOL    HW112672   0.100   5.469   8.335
 3555SOL    HW212673   0.231   5.534   8.365
 3556SOL     OW12674   0.482   5.303   8.368
 3556SOL    HW112675   0.555   5.360   8.397
 3556SOL    HW212676   0.526   5.243   8.305
 3557SOL     OW12677   0.957   4.508   8.683
 3557SOL    HW112678   1.013   4.465   8.750
 3557SOL    HW212679   0.876   4.520   8.736
 3558SOL     OW12680  11.095   4.305   8.538
 3558SOL    HW112681   0.066   4.247   8.515
 3558SOL    HW212682  11.100   4.303   8.636
 3559SOL     OW12683   0.198   4.258   9.216
 3559SOL    HW112684   0.244   4.183   9.175
 3559SOL    HW212685   0.169   4.313   9.141
 3560SOL     OW12686   1.391   4.630   9.099
 3560SOL    HW112687   1.416   4.725   9.098
 3560SOL    HW212688   1.385   4.609   9.004
 3561SOL     OW12689   0.803   4.295   7.822
 3561SOL    HW112690   0.812   4.226   7.754
 3561SOL    HW212691   0.724   4.343   7.791
 3562SOL     OW12692   1.643   4.342   8.659
 3562SOL    HW112693   1.620   4.272   8.722
 3562SOL    HW212694   1.728   4.310   8.623
 3563SOL     OW12695   0.270   5.254   9.174
 3563SOL    HW112696   0.234   5.327   9.228
 3563SOL    HW212697   0.251   5.176   9.228
 3564SOL     OW12698   0.668   4.206   8.723
 3564SOL    HW112699   0.609   4.152   8.777
 3564SOL    HW212700   0.680   4.150   8.645
 3565SOL     OW12701   0.898   5.406   8.910
 3565SOL    HW112702   0.890   5.365   8.822
 3565SOL    HW212703   0.884   5.500   8.892
 3566SOL     OW12704   0.459   4.206   7.657
 3566SOL    HW112705   0.519   4.281   7.649
 3566SOL    HW212706   0.372   4.249   7.641
 3567SOL     OW12707   0.186   4.835   8.941
 3567SOL    HW112708   0.175   4.770   9.013
 3567SOL    HW212709   0.178   4.782   8.859
 3568SOL     OW12710   1.321   4.759   8.683
 3568SOL    HW112711   1.342   4.702   8.607
 3568SOL    HW212712   1.250   4.814   8.647
 3569SOL     OW12713   1.307   4.591   7.750
 3569SOL    HW112714   1.265   4.522   7.804
 3569SOL    HW212715   1.300   4.557   7.659
 3570SOL     OW12716   1.752   5.467   8.577
 3570SOL    HW112717   1.826   5.491   8.518
 3570SOL    HW212718   1.740   5.372   8.555
 3571SOL     OW12719   1.253   5.457   8.560
 3571SOL    HW112720   1.335   5.480   8.514
 3571SOL    HW212721   1.263   5.360   8.573
 3572SOL     OW12722   0.099   5.012   8.455
 3572SOL    HW112723   0.096   5.026   8.552
 3572SOL    HW212724   0.008   4.984   8.439
 3573SOL     OW12725   0.680   5.362   9.189
 3573SOL    HW112726   0.631   5.444   9.177
 3573SOL    HW212727   0.755   5.374   9.128
 3574SOL     OW12728   1.804   3.830   7.987
 3574SOL    HW112729   1.741   3.876   7.929
 3574SOL    HW212730   1.751   3.759   8.027
 3575SOL     OW12731   1.361   5.297   7.923
 3575SOL    HW112732   1.424   5.318   7.852
 3575SOL    HW212733   1.322   5.385   7.942
 3576SOL     OW12734   0.168   5.504   9.291
 3576SOL    HW112735   0.117   5.435   9.337
 3576SOL    HW212736   0.205   5.554   9.365
 3577SOL     OW12737   1.247   4.645   8.110
 3577SOL    HW112738   1.328   4.596   8.134
 3577SOL    HW212739   1.287   4.723   8.066
 3578SOL     OW12740   0.802   4.977   8.880
 3578SOL    HW112741   0.776   5.025   8.961
 3578SOL    HW212742   0.724   4.992   8.825
 3579SOL     OW12743   0.666   5.344   7.609
 3579SOL    HW112744   0.674   5.358   7.513
 3579SOL    HW212745   0.607   5.266   7.612
 3580SOL     OW12746   1.626   5.442   8.834
 3580SOL    HW112747   1.670   5.453   8.748
 3580SOL    HW212748   1.616   5.534   8.864
 3581SOL     OW12749   1.834   3.888   8.418
 3581SOL    HW112750   1.853   3.803   8.375
 3581SOL    HW212751   1.747   3.915   8.380
 3582SOL     OW12752   0.260   4.033   8.154
 3582SOL    HW112753   0.165   4.054   8.138
 3582SOL    HW212754   0.260   4.025   8.251
 3583SOL     OW12755   1.173   5.352   7.467
 3583SOL    HW112756   1.185   5.257   7.473
 3583SOL    HW212757   1.114   5.363   7.390
 3584SOL     OW12758   0.823   4.719   8.823
 3584SOL    HW112759   0.862   4.738   8.737
 3584SOL    HW212760   0.819   4.808   8.863
 3585SOL     OW12761   0.945   4.644   7.720
 3585SOL    HW112762   1.018   4.691   7.761
 3585SOL    HW212763   0.956   4.555   7.759
 3586SOL     OW12764   1.523   5.321   7.484
 3586SOL    HW112765   1.431   5.350   7.479
 3586SOL    HW212766   1.552   5.329   7.391
 3587SOL     OW12767   0.385   5.006   8.918
 3587SOL    HW112768   0.343   5.087   8.884
 3587SOL    HW212769   0.312   4.941   8.921
 3588SOL     OW12770   1.601   5.031   8.708
 3588SOL    HW112771   1.661   5.012   8.782
 3588SOL    HW212772   1.540   5.097   8.748
 3589SOL     OW12773   1.051   4.830   8.160
 3589SOL    HW112774   0.984   4.783   8.210
 3589SOL    HW212775   1.114   4.760   8.136
 3590SOL     OW12776   1.031   3.947   8.435
 3590SOL    HW112777   0.998   3.912   8.351
 3590SOL    HW212778   1.034   3.867   8.491
 3591SOL     OW12779   0.584   5.164   7.922
 3591SOL    HW112780   0.657   5.158   7.858
 3591SOL    HW212781   0.535   5.241   7.890
 3592SOL     OW12782   1.711   4.091   8.828
 3592SOL    HW112783   1.775   4.164   8.823
 3592SOL    HW212784   1.753   4.023   8.771
 3593SOL     OW12785   0.248   5.067   7.722
 3593SOL    HW112786   0.155   5.087   7.703
 3593SOL    HW212787   0.254   5.089   7.817
 3594SOL     OW12788   0.120   4.721   9.187
 3594SOL    HW112789   0.055   4.674   9.240
 3594SOL    HW212790   0.205   4.680   9.217
 3595SOL     OW12791   0.684   3.922   8.940
 3595SOL    HW112792   0.773   3.900   8.904
 3595SOL    HW212793   0.706   3.949   9.031
 3596SOL     OW12794   0.091   4.064   7.492
 3596SOL    HW112795   0.005   4.044   7.453
 3596SOL    HW212796   0.120   4.137   7.434
 3597SOL     OW12797   1.448   4.574   8.836
 3597SOL    HW112798   1.404   4.643   8.783
 3597SOL    HW212799   1.541   4.600   8.825
 3598SOL     OW12800   0.063   3.893   7.765
 3598SOL    HW112801   0.054   3.967   7.703
 3598SOL    HW212802   0.144   3.849   7.731
 3599SOL     OW12803   1.204   5.048   7.561
 3599SOL    HW112804   1.108   5.063   7.560
 3599SOL    HW212805   1.225   5.065   7.655
 3600SOL     OW12806   0.602   4.558   8.869
 3600SOL    HW112807   0.660   4.636   8.876
 3600SOL    HW212808   0.669   4.488   8.878
 3601SOL     OW12809   1.510   5.477   8.411
 3601SOL    HW112810   1.539   5.528   8.334
 3601SOL    HW212811   1.592   5.470   8.462
 3602SOL     OW12812   0.729   4.270   9.120
 3602SOL    HW112813   0.773   4.321   9.190
 3602SOL    HW212814   0.727   4.180   9.156
 3603SOL     OW12815   1.464   4.903   9.079
 3603SOL    HW112816   1.456   4.908   9.177
 3603SOL    HW212817   1.558   4.926   9.066
 3604SOL     OW12818   0.395   5.453   9.025
 3604SOL    HW112819   0.311   5.494   8.996
 3604SOL    HW212820   0.361   5.370   9.064
 3605SOL     OW12821   1.693   4.607   8.683
 3605SOL    HW112822   1.670   4.516   8.655
 3605SOL    HW212823   1.651   4.664   8.616
 3606SOL     OW12824   1.209   4.020   7.916
 3606SOL    HW112825   1.290   3.967   7.903
 3606SOL    HW212826   1.234   4.077   7.992
 3607SOL     OW12827   0.599   4.472   8.111
 3607SOL    HW112828   0.611   4.567   8.099
 3607SOL    HW212829   0.535   4.451   8.040
 3608SOL     OW12830   1.769   4.100   9.087
 3608SOL    HW112831   1.740   4.108   8.995
 3608SOL    HW212832   1.693   4.055   9.128
 3609SOL     OW12833   1.730   4.660   8.944
 3609SOL    HW112834   1.735   4.757   8.942
 3609SOL    HW212835   1.743   4.637   8.850
 3610SOL     OW12836   0.875   5.092   7.483
 3610SOL    HW112837   0.841   5.109   7.573
 3610SOL    HW212838   0.884   5.181   7.445
 3611SOL     OW12839   0.656   5.529   8.371
 3611SOL    HW112840   0.649   5.625   8.354
 3611SOL    HW212841   0.751   5.514   8.374
 3612SOL     OW12842   0.877   4.669   8.305
 3612SOL    HW112843   0.959   4.642   8.350
 3612SOL    HW212844   0.851   4.748   8.355
 3613SOL     OW12845   1.861   5.280   8.273
 3613SOL    HW112846   1.765   5.273   8.264
 3613SOL    HW212847   1.881   5.212   8.338
 3614SOL     OW12848   0.232   5.015   9.299
 3614SOL    HW112849   0.190   4.931   9.277
 3614SOL    HW212850   0.226   5.017   9.396
 3615SOL     OW12851   0.087   4.938   8.093
 3615SOL    HW112852   0.031   4.886   8.152
 3615SOL    HW212853   0.053   4.911   8.006
 3616SOL     OW12854   0.667   5.123   9.060
 3616SOL    HW112855   0.592   5.070   9.092
 3616SOL    HW212856   0.657   5.206   9.111
 3617SOL     OW12857   1.818   3.893   8.681
 3617SOL    HW112858   1.835   3.799   8.691
 3617SOL    HW212859   1.824   3.904   8.584
 3618SOL     OW12860   0.448   4.137   7.985
 3618SOL    HW112861   0.448   4.066   7.920
 3618SOL    HW212862   0.387   4.103   8.053
 3619SOL     OW12863   1.703   5.209   8.514
 3619SOL    HW112864   1.619   5.189   8.470
 3619SOL    HW212865   1.698   5.150   8.591
 3620SOL     OW12866   0.332   4.264   8.722
 3620SOL    HW112867   0.383   4.203   8.779
 3620SOL    HW212868   0.342   4.224   8.634
 3621SOL     OW12869   0.827   5.307   8.135
 3621SOL    HW112870   0.844   5.392   8.085
 3621SOL    HW212871   0.731   5.300   8.127
 3622SOL     OW12872   1.423   3.960   8.554
 3622SOL    HW112873   1.469   3.888   8.600
 3622SOL    HW212874   1.376   4.005   8.627
 3623SOL     OW12875   1.020   3.724   8.600
 3623SOL    HW112876   0.964   3.645   8.593
 3623SOL    HW212877   1.111   3.685   8.600
 3624SOL     OW12878   0.799   5.066   7.758
 3624SOL    HW112879   0.772   4.974   7.774
 3624SOL    HW212880   0.864   5.083   7.828
 3625SOL     OW12881   0.600   5.265   8.718
 3625SOL    HW112882   0.595   5.354   8.757
 3625SOL    HW212883   0.694   5.263   8.696
 3626SOL     OW12884   1.309   3.767   7.614
 3626SOL    HW112885   1.322   3.703   7.543
 3626SOL    HW212886   1.224   3.734   7.653
 3627SOL     OW12887   1.248   4.181   8.129
 3627SOL    HW112888   1.206   4.269   8.133
 3627SOL    HW212889   1.262   4.160   8.223
 3628SOL     OW12890   1.584   3.950   8.331
 3628SOL    HW112891   1.516   3.969   8.398
 3628SOL    HW212892   1.584   4.030   8.274
 3629SOL     OW12893   0.047   4.794   7.751
 3629SOL    HW112894   0.138   4.807   7.723
 3629SOL    HW212895   0.045   4.697   7.764
 3630SOL     OW12896   0.895   5.358   7.767
 3630SOL    HW112897   0.813   5.354   7.715
 3630SOL    HW212898   0.877   5.431   7.831
 3631SOL     OW12899   0.246   4.376   9.451
 3631SOL    HW112900   0.160   4.353   9.491
 3631SOL    HW212901   0.238   4.336   9.362
 3632SOL     OW12902   0.234   4.009  10.285
 3632SOL    HW112903   0.263   3.983  10.375
 3632SOL    HW212904   0.165   3.944  10.269
 3633SOL     OW12905  11.100   4.105   9.953
 3633SOL    HW112906  11.017   4.130   9.994
 3633SOL    HW212907  11.081   4.014   9.921
 3634SOL     OW12908   0.572   5.020  10.463
 3634SOL    HW112909   0.478   5.000  10.450
 3634SOL    HW212910   0.568   5.112  10.496
 3635SOL     OW12911   1.536   5.257  10.026
 3635SOL    HW112912   1.503   5.225  10.112
 3635SOL    HW212913   1.458   5.251   9.967
 3636SOL     OW12914   1.120   4.411   9.997
 3636SOL    HW112915   1.165   4.498   9.987
 3636SOL    HW212916   1.067   4.428  10.076
 3637SOL     OW12917   1.769   4.331   9.550
 3637SOL    HW112918   1.751   4.321   9.455
 3637SOL    HW212919   1.718   4.256   9.587
 3638SOL     OW12920   0.768   4.886  10.336
 3638SOL    HW112921   0.696   4.927  10.388
 3638SOL    HW212922   0.799   4.966  10.288
 3639SOL     OW12923   0.821   4.514   0.015
 3639SOL    HW112924   0.857   4.579   0.076
 3639SOL    HW212925   0.866   4.540  11.034
 3640SOL     OW12926   0.686   4.734   9.967
 3640SOL    HW112927   0.751   4.726  10.039
 3640SOL    HW212928   0.615   4.786  10.009
 3641SOL     OW12929   0.314   5.162  10.386
 3641SOL    HW112930   0.242   5.121  10.336
 3641SOL    HW212931   0.366   5.208  10.318
 3642SOL     OW12932   1.466   5.231  10.659
 3642SOL    HW112933   1.526   5.308  10.671
 3642SOL    HW212934   1.398   5.250  10.727
 3643SOL     OW12935   0.479   4.126  10.829
 3643SOL    HW112936   0.549   4.060  10.822
 3643SOL    HW212937   0.396   4.076  10.825
 3644SOL     OW12938   1.619   4.168  10.053
 3644SOL    HW112939   1.554   4.206   9.991
 3644SOL    HW212940   1.613   4.228  10.128
 3645SOL     OW12941   0.222   5.407   9.786
 3645SOL    HW112942   0.233   5.486   9.840
 3645SOL    HW212943   0.273   5.428   9.707
 3646SOL     OW12944   0.231   5.135   9.831
 3646SOL    HW112945   0.222   5.231   9.823
 3646SOL    HW212946   0.160   5.112   9.894
 3647SOL     OW12947   0.258   4.847  10.219
 3647SOL    HW112948   0.239   4.759  10.254
 3647SOL    HW212949   0.188   4.901  10.261
 3648SOL     OW12950   0.621   5.513  10.741
 3648SOL    HW112951   0.540   5.504  10.795
 3648SOL    HW212952   0.647   5.606  10.756
 3649SOL     OW12953   0.573   4.719   9.425
 3649SOL    HW112954   0.625   4.771   9.361
 3649SOL    HW212955   0.617   4.743   9.509
 3650SOL     OW12956   1.587   3.837  10.795
 3650SOL    HW112957   1.599   3.924  10.754
 3650SOL    HW212958   1.587   3.856  10.889
 3651SOL     OW12959   0.118   4.362   9.862
 3651SOL    HW112960   0.094   4.268   9.874
 3651SOL    HW212961   0.109   4.399   9.952
 3652SOL     OW12962   1.844   5.461   9.654
 3652SOL    HW112963   1.917   5.443   9.717
 3652SOL    HW212964   1.860   5.555   9.632
 3653SOL     OW12965   0.058   5.315   9.440
 3653SOL    HW112966   0.040   5.221   9.455
 3653SOL    HW212967   0.012   5.357   9.513
 3654SOL     OW12968   1.681   4.634   9.925
 3654SOL    HW112969   1.756   4.596   9.877
 3654SOL    HW212970   1.649   4.700   9.862
 3655SOL     OW12971   1.642   4.853   9.750
 3655SOL    HW112972   1.734   4.849   9.720
 3655SOL    HW212973   1.649   4.918   9.823
 3656SOL     OW12974   0.127   4.455  10.910
 3656SOL    HW112975   0.220   4.484  10.920
 3656SOL    HW212976   0.080   4.539  10.895
 3657SOL     OW12977   0.610   5.118  10.068
 3657SOL    HW112978   0.571   5.030  10.083
 3657SOL    HW212979   0.597   5.124   9.972
 3658SOL     OW12980   1.289   4.959  10.732
 3658SOL    HW112981   1.319   4.891  10.668
 3658SOL    HW212982   1.342   4.938  10.810
 3659SOL     OW12983   0.828   3.717   9.832
 3659SOL    HW112984   0.853   3.810   9.815
 3659SOL    HW212985   0.731   3.722   9.834
 3660SOL     OW12986   0.174   4.713  10.578
 3660SOL    HW112987   0.255   4.667  10.550
 3660SOL    HW212988   0.105   4.651  10.552
 3661SOL     OW12989   1.548   4.680   9.482
 3661SOL    HW112990   1.468   4.637   9.518
 3661SOL    HW212991   1.587   4.719   9.561
 3662SOL     OW12992   1.243   5.526  10.904
 3662SOL    HW112993   1.202   5.595  10.850
 3662SOL    HW212994   1.232   5.447  10.848
 3663SOL     OW12995   0.320   3.969   0.029
 3663SOL    HW112996   0.381   4.041   0.050
 3663SOL    HW212997   0.233   4.002   0.058
 3664SOL     OW12998   1.475   5.136  10.265
 3664SOL    HW112999   1.411   5.157  10.335
 3664SOL    HW213000   1.447   5.047  10.237
 3665SOL     OW13001   1.648   5.464   9.902
 3665SOL    HW113002   1.627   5.421   9.818
 3665SOL    HW213003   1.621   5.394   9.965
 3666SOL     OW13004   0.584   4.438   9.589
 3666SOL    HW113005   0.591   4.524   9.548
 3666SOL    HW213006   0.515   4.453   9.657
 3667SOL     OW13007   1.279   4.071  10.233
 3667SOL    HW113008   1.191   4.033  10.242
 3667SOL    HW213009   1.329   4.028  10.305
 3668SOL     OW13010   1.575   5.365   9.621
 3668SOL    HW113011   1.666   5.397   9.627
 3668SOL    HW213012   1.566   5.356   9.525
 3669SOL     OW13013   0.807   4.349  10.774
 3669SOL    HW113014   0.774   4.319  10.861
 3669SOL    HW213015   0.767   4.285  10.712
 3670SOL     OW13016   0.953   4.590  10.890
 3670SOL    HW113017   1.003   4.522  10.841
 3670SOL    HW213018   0.899   4.631  10.820
 3671SOL     OW13019   0.978   4.112  10.559
 3671SOL    HW113020   0.890   4.143  10.586
 3671SOL    HW213021   0.959   4.066  10.476
 3672SOL     OW13022   1.049   4.406   9.716
 3672SOL    HW113023   1.069   4.423   9.810
 3672SOL    HW213024   0.961   4.361   9.723
 3673SOL     OW13025   0.098   4.518  10.074
 3673SOL    HW113026   0.180   4.512  10.127
 3673SOL    HW213027   0.061   4.600  10.111
 3674SOL     OW13028   0.105   5.554  10.895
 3674SOL    HW113029   0.102   5.517  10.984
 3674SOL    HW213030   0.018   5.535  10.859
 3675SOL     OW13031   0.880   4.102   9.523
 3675SOL    HW113032   0.926   4.154   9.455
 3675SOL    HW213033   0.881   4.015   9.482
 3676SOL     OW13034   1.360   4.878   9.877
 3676SOL    HW113035   1.436   4.867   9.818
 3676SOL    HW213036   1.306   4.941   9.827
 3677SOL     OW13037   0.588   3.929  10.201
 3677SOL    HW113038   0.594   3.944  10.297
 3677SOL    HW213039   0.558   4.015  10.168
 3678SOL     OW13040   0.983   5.160   9.786
 3678SOL    HW113041   0.942   5.225   9.726
 3678SOL    HW213042   0.989   5.209   9.869
 3679SOL     OW13043   0.381   5.527  10.144
 3679SOL    HW113044   0.395   5.432  10.164
 3679SOL    HW213045   0.465   5.564  10.177
 3680SOL     OW13046   1.816   4.766  10.172
 3680SOL    HW113047   1.757   4.752  10.097
 3680SOL    HW213048   1.754   4.772  10.246
 3681SOL     OW13049   1.231   5.282  10.794
 3681SOL    HW113050   1.209   5.220  10.865
 3681SOL    HW213051   1.161   5.260  10.730
 3682SOL     OW13052   0.322   4.677   9.560
 3682SOL    HW113053   0.392   4.702   9.497
 3682SOL    HW213054   0.296   4.589   9.529
 3683SOL     OW13055   1.474   4.489  10.041
 3683SOL    HW113056   1.487   4.452  10.130
 3683SOL    HW213057   1.559   4.533  10.024
 3684SOL     OW13058   0.478   4.981  11.050
 3684SOL    HW113059   0.452   5.000  10.956
 3684SOL    HW213060   0.412   4.918  11.077
 3685SOL     OW13061   1.102   5.504   9.548
 3685SOL    HW113062   1.042   5.447   9.599
 3685SOL    HW213063   1.119   5.451   9.468
 3686SOL     OW13064   0.225   4.020  10.794
 3686SOL    HW113065   0.142   4.069  10.793
 3686SOL    HW213066   0.204   3.948  10.855
 3687SOL     OW13067   1.618   5.086   9.402
 3687SOL    HW113068   1.577   5.173   9.383
 3687SOL    HW213069   1.552   5.022   9.368
 3688SOL     OW13070   0.448   5.471   9.627
 3688SOL    HW113071   0.507   5.509   9.695
 3688SOL    HW213072   0.510   5.420   9.573
 3689SOL     OW13073   1.370   3.826   9.746
 3689SOL    HW113074   1.369   3.784   9.659
 3689SOL    HW213075   1.464   3.843   9.760
 3690SOL     OW13076   0.232   5.520  10.547
 3690SOL    HW113077   0.303   5.472  10.593
 3690SOL    HW213078   0.229   5.476  10.461
 3691SOL     OW13079   0.942   5.429  10.204
 3691SOL    HW113080   1.024   5.385  10.228
 3691SOL    HW213081   0.910   5.373  10.130
 3692SOL     OW13082   0.405   4.423   9.798
 3692SOL    HW113083   0.422   4.327   9.797
 3692SOL    HW213084   0.310   4.423   9.819
 3693SOL     OW13085   0.641   3.862   9.396
 3693SOL    HW113086   0.704   3.799   9.433
 3693SOL    HW213087   0.593   3.808   9.329
 3694SOL     OW13088   0.771   3.969  11.031
 3694SOL    HW113089   0.846   3.937  11.083
 3694SOL    HW213090   0.706   3.993  11.099
 3695SOL     OW13091   0.865   5.259  10.514
 3695SOL    HW113092   0.864   5.228  10.422
 3695SOL    HW213093   0.936   5.206  10.555
 3696SOL     OW13094   1.343   4.312  10.735
 3696SOL    HW113095   1.413   4.276  10.789
 3696SOL    HW213096   1.379   4.402  10.716
 3697SOL     OW13097   0.826   5.132  10.254
 3697SOL    HW113098   0.913   5.118  10.211
 3697SOL    HW213099   0.765   5.136  10.179
 3698SOL     OW13100   0.950   4.248  10.223
 3698SOL    HW113101   0.917   4.236  10.131
 3698SOL    HW213102   0.972   4.157  10.245
 3699SOL     OW13103   0.548   3.756   9.806
 3699SOL    HW113104   0.465   3.762   9.855
 3699SOL    HW213105   0.543   3.837   9.751
 3700SOL     OW13106   1.442   4.897   9.338
 3700SOL    HW113107   1.466   4.819   9.391
 3700SOL    HW213108   1.357   4.925   9.377
 3701SOL     OW13109   0.304   3.778   9.551
 3701SOL    HW113110   0.275   3.761   9.459
 3701SOL    HW213111   0.358   3.702   9.573
 3702SOL     OW13112   0.932   3.978   9.799
 3702SOL    HW113113   0.908   4.029   9.719
 3702SOL    HW213114   1.027   3.993   9.803
 3703SOL     OW13115   1.096   4.408  10.750
 3703SOL    HW113116   1.041   4.329  10.760
 3703SOL    HW213117   1.187   4.372  10.756
 3704SOL     OW13118   1.232   5.290  10.100
 3704SOL    HW113119   1.227   5.356  10.030
 3704SOL    HW213120   1.295   5.328  10.162
 3705SOL     OW13121   0.464   4.887  10.046
 3705SOL    HW113122   0.390   4.877  10.108
 3705SOL    HW213123   0.424   4.858   9.961
 3706SOL     OW13124   1.248   5.535   9.906
 3706SOL    HW113125   1.300   5.606   9.864
 3706SOL    HW213126   1.190   5.584   9.966
 3707SOL     OW13127   1.057   4.261   9.339
 3707SOL    HW113128   1.012   4.344   9.317
 3707SOL    HW213129   1.128   4.286   9.399
 3708SOL     OW13130   0.077   4.298  10.698
 3708SOL    HW113131   0.170   4.290  10.669
 3708SOL    HW213132   0.085   4.363  10.772
 3709SOL     OW13133   0.586   3.949  10.479
 3709SOL    HW113134   0.626   3.882  10.535
 3709SOL    HW213135   0.493   3.945  10.503
 3710SOL     OW13136   0.878   4.181   9.981
 3710SOL    HW113137   0.827   4.232   9.916
 3710SOL    HW213138   0.896   4.098   9.933
 3711SOL     OW13139   1.030   3.797  10.079
 3711SOL    HW113140   0.979   3.793   9.997
 3711SOL    HW213141   1.001   3.718  10.127
 3712SOL     OW13142   1.416   4.887  10.195
 3712SOL    HW113143   1.341   4.828  10.213
 3712SOL    HW213144   1.421   4.884  10.098
 3713SOL     OW13145   1.483   4.320  10.288
 3713SOL    HW113146   1.433   4.238  10.297
 3713SOL    HW213147   1.543   4.319  10.364
 3714SOL     OW13148   1.837   4.545   9.705
 3714SOL    HW113149   1.894   4.490   9.762
 3714SOL    HW213150   1.819   4.483   9.632
 3715SOL     OW13151   0.486   5.139   9.452
 3715SOL    HW113152   0.409   5.115   9.508
 3715SOL    HW213153   0.457   5.111   9.365
 3716SOL     OW13154   1.673   5.017   9.972
 3716SOL    HW113155   1.770   5.024   9.977
 3716SOL    HW213156   1.640   5.105   9.996
 3717SOL     OW13157   1.410   4.320   9.375
 3717SOL    HW113158   1.361   4.291   9.454
 3717SOL    HW213159   1.499   4.286   9.392
 3718SOL     OW13160   0.527   3.965   9.630
 3718SOL    HW113161   0.549   3.921   9.546
 3718SOL    HW213162   0.496   4.050   9.595
 3719SOL     OW13163   1.753   4.962  10.868
 3719SOL    HW113164   1.845   4.935  10.881
 3719SOL    HW213165   1.754   5.054  10.896
 3720SOL     OW13166   1.042   5.102  10.678
 3720SOL    HW113167   0.967   5.051  10.713
 3720SOL    HW213168   1.117   5.042  10.693
 3721SOL     OW13169   1.117   4.953  10.418
 3721SOL    HW113170   1.032   4.952  10.463
 3721SOL    HW213171   1.097   4.999  10.336
 3722SOL     OW13172   1.618   4.824  10.386
 3722SOL    HW113173   1.626   4.889  10.458
 3722SOL    HW213174   1.546   4.863  10.333
 3723SOL     OW13175   0.916   3.827  10.686
 3723SOL    HW113176   0.950   3.798  10.599
 3723SOL    HW213177   0.997   3.867  10.725
 3724SOL     OW13178   0.710   4.778   9.659
 3724SOL    HW113179   0.690   4.754   9.750
 3724SOL    HW213180   0.793   4.728   9.643
 3725SOL     OW13181   0.391   4.538  10.566
 3725SOL    HW113182   0.465   4.539  10.630
 3725SOL    HW213183   0.359   4.447  10.576
 3726SOL     OW13184   1.252   4.097  10.588
 3726SOL    HW113185   1.276   4.181  10.632
 3726SOL    HW213186   1.164   4.117  10.550
 3727SOL     OW13187   0.039   5.301  10.682
 3727SOL    HW113188   0.010   5.367  10.617
 3727SOL    HW213189   0.135   5.308  10.678
 3728SOL     OW13190   0.362   4.824   9.802
 3728SOL    HW113191   0.366   4.897   9.740
 3728SOL    HW213192   0.347   4.747   9.745
 3729SOL     OW13193   0.546   4.274  10.165
 3729SOL    HW113194   0.574   4.331  10.090
 3729SOL    HW213195   0.610   4.298  10.234
 3730SOL     OW13196   1.223   5.063   9.706
 3730SOL    HW113197   1.265   5.143   9.741
 3730SOL    HW213198   1.131   5.075   9.738
 3731SOL     OW13199   1.293   5.185  10.466
 3731SOL    HW113200   1.352   5.194  10.543
 3731SOL    HW213201   1.234   5.113  10.492
 3732SOL     OW13202   1.591   4.348   9.787
 3732SOL    HW113203   1.536   4.403   9.845
 3732SOL    HW213204   1.622   4.411   9.722
 3733SOL     OW13205   0.330   5.215  10.639
 3733SOL    HW113206   0.318   5.186  10.546
 3733SOL    HW213207   0.421   5.249  10.636
 3734SOL     OW13208   0.404   4.462  10.919
 3734SOL    HW113209   0.471   4.500  10.859
 3734SOL    HW213210   0.419   4.368  10.903
 3735SOL     OW13211   1.627   4.482  11.003
 3735SOL    HW113212   1.554   4.543  11.012
 3735SOL    HW213213   1.687   4.533  10.945
 3736SOL     OW13214   0.571   4.628  10.327
 3736SOL    HW113215   0.618   4.712  10.327
 3736SOL    HW213216   0.541   4.617  10.418
 3737SOL     OW13217   1.339   4.564  10.355
 3737SOL    HW113218   1.264   4.542  10.298
 3737SOL    HW213219   1.395   4.486  10.346
 3738SOL     OW13220   1.229   4.243   9.575
 3738SOL    HW113221   1.232   4.172   9.642
 3738SOL    HW213222   1.168   4.305   9.619
 3739SOL     OW13223   0.291   3.919  10.531
 3739SOL    HW113224   0.267   3.972  10.610
 3739SOL    HW213225   0.225   3.848  10.537
 3740SOL     OW13226   0.061   5.031  10.611
 3740SOL    HW113227   0.119   4.986  10.675
 3740SOL    HW213228   0.057   5.123  10.645
 3741SOL     OW13229   0.729   4.367  10.349
 3741SOL    HW113230   0.810   4.341  10.300
 3741SOL    HW213231   0.710   4.456  10.316
 3742SOL     OW13232   0.289   3.765   9.922
 3742SOL    HW113233   0.275   3.860   9.940
 3742SOL    HW213234   0.308   3.731  10.011
 3743SOL     OW13235   1.594   4.103   9.665
 3743SOL    HW113236   1.628   4.035   9.725
 3743SOL    HW213237   1.592   4.183   9.721
 3744SOL     OW13238   1.049   4.490  10.269
 3744SOL    HW113239   1.032   4.507  10.363
 3744SOL    HW213240   1.026   4.395  10.261
 3745SOL     OW13241   0.997   5.270  10.965
 3745SOL    HW113242   0.977   5.339  10.898
 3745SOL    HW213243   0.955   5.194  10.924
 3746SOL     OW13244   1.846   5.233  10.900
 3746SOL    HW113245   1.873   5.247  10.808
 3746SOL    HW213246   1.928   5.252  10.948
 3747SOL     OW13247   0.364   4.617   0.035
 3747SOL    HW113248   0.453   4.654   0.052
 3747SOL    HW213249   0.383   4.554  11.064
 3748SOL     OW13250   1.509   3.979   9.441
 3748SOL    HW113251   1.431   3.930   9.470
 3748SOL    HW213252   1.542   4.022   9.523
 3749SOL     OW13253   1.305   4.568   9.339
 3749SOL    HW113254   1.349   4.481   9.349
 3749SOL    HW213255   1.332   4.591   9.248
 3750SOL     OW13256   1.061   5.087  10.158
 3750SOL    HW113257   1.069   5.013  10.094
 3750SOL    HW213258   1.131   5.149  10.131
 3751SOL     OW13259   0.289   4.554  10.271
 3751SOL    HW113260   0.378   4.587  10.256
 3751SOL    HW213261   0.306   4.474  10.324
 3752SOL     OW13262   0.333   4.265  10.324
 3752SOL    HW113263   0.298   4.180  10.293
 3752SOL    HW213264   0.408   4.276  10.261
 3753SOL     OW13265   1.148   3.920  10.773
 3753SOL    HW113266   1.177   3.979  10.843
 3753SOL    HW213267   1.182   3.966  10.694
 3754SOL     OW13268  11.092   5.056   9.506
 3754SOL    HW113269  11.000   5.064   9.476
 3754SOL    HW213270  11.093   4.966   9.545
 3755SOL     OW13271   0.143   5.526  10.266
 3755SOL    HW113272   0.102   5.461  10.206
 3755SOL    HW213273   0.228   5.540  10.222
 3756SOL     OW13274   0.491   5.292  10.232
 3756SOL    HW113275   0.570   5.346  10.250
 3756SOL    HW213276   0.528   5.223  10.175
 3757SOL     OW13277   0.961   4.510  10.537
 3757SOL    HW113278   1.025   4.478  10.604
 3757SOL    HW213279   0.879   4.473  10.570
 3758SOL     OW13280   0.001   4.261  10.413
 3758SOL    HW113281   0.089   4.249  10.375
 3758SOL    HW213282   0.021   4.281  10.506
 3759SOL     OW13283   0.798   4.296   9.703
 3759SOL    HW113284   0.808   4.230   9.632
 3759SOL    HW213285   0.717   4.342   9.676
 3760SOL     OW13286   1.656   4.342  10.506
 3760SOL    HW113287   1.647   4.272  10.572
 3760SOL    HW213288   1.737   4.315  10.459
 3761SOL     OW13289   0.256   5.291  11.042
 3761SOL    HW113290   0.195   5.320   0.011
 3761SOL    HW213291   0.260   5.196  11.058
 3762SOL     OW13292   0.704   4.198  10.576
 3762SOL    HW113293   0.660   4.118  10.544
 3762SOL    HW213294   0.699   4.258  10.499
 3763SOL     OW13295   0.928   5.406  10.743
 3763SOL    HW113296   0.897   5.383  10.654
 3763SOL    HW213297   0.916   5.504  10.745
 3764SOL     OW13298   0.455   4.203   9.501
 3764SOL    HW113299   0.521   4.272   9.516
 3764SOL    HW213300   0.373   4.256   9.499
 3765SOL     OW13301   0.183   4.868  10.795
 3765SOL    HW113302   0.169   4.811  10.873
 3765SOL    HW213303   0.187   4.804  10.721
 3766SOL     OW13304   1.324   4.768  10.543
 3766SOL    HW113305   1.337   4.697  10.476
 3766SOL    HW213306   1.258   4.824  10.499
 3767SOL     OW13307   1.312   4.586   9.604
 3767SOL    HW113308   1.228   4.559   9.642
 3767SOL    HW213309   1.295   4.585   9.508
 3768SOL     OW13310   1.760   5.473  10.435
 3768SOL    HW113311   1.829   5.490  10.369
 3768SOL    HW213312   1.748   5.376  10.428
 3769SOL     OW13313   1.222   5.440  10.429
 3769SOL    HW113314   1.312   5.471  10.410
 3769SOL    HW213315   1.236   5.344  10.444
 3770SOL     OW13316   0.077   4.995  10.350
 3770SOL    HW113317   0.082   5.008  10.447
 3770SOL    HW213318  11.095   4.946  10.342
 3771SOL     OW13319   1.676   3.869   9.799
 3771SOL    HW113320   1.752   3.854   9.740
 3771SOL    HW213321   1.674   3.787   9.852
 3772SOL     OW13322   1.360   5.301   9.795
 3772SOL    HW113323   1.422   5.313   9.721
 3772SOL    HW213324   1.323   5.390   9.809
 3773SOL     OW13325   1.254   4.647   9.990
 3773SOL    HW113326   1.335   4.595  10.007
 3773SOL    HW213327   1.289   4.720   9.936
 3774SOL     OW13328   0.807   4.979  10.753
 3774SOL    HW113329   0.777   5.022  10.836
 3774SOL    HW213330   0.738   5.009  10.691
 3775SOL     OW13331   0.667   5.339   9.473
 3775SOL    HW113332   0.678   5.353   9.377
 3775SOL    HW213333   0.617   5.255   9.473
 3776SOL     OW13334   1.627   5.435  10.684
 3776SOL    HW113335   1.672   5.454  10.600
 3776SOL    HW213336   1.613   5.523  10.722
 3777SOL     OW13337   1.857   3.900  10.272
 3777SOL    HW113338   1.876   3.807  10.247
 3777SOL    HW213339   1.765   3.913  10.238
 3778SOL     OW13340   0.262   4.018  10.015
 3778SOL    HW113341   0.172   4.053   9.999
 3778SOL    HW213342   0.267   4.021  10.112
 3779SOL     OW13343   1.175   5.346   9.340
 3779SOL    HW113344   1.188   5.250   9.350
 3779SOL    HW213345   1.116   5.352   9.262
 3780SOL     OW13346   0.801   4.707  10.697
 3780SOL    HW113347   0.845   4.699  10.612
 3780SOL    HW213348   0.823   4.797  10.726
 3781SOL     OW13349   0.924   4.641   9.595
 3781SOL    HW113350   0.994   4.673   9.535
 3781SOL    HW213351   0.956   4.556   9.626
 3782SOL     OW13352   1.544   5.344   9.342
 3782SOL    HW113353   1.449   5.359   9.331
 3782SOL    HW213354   1.575   5.347   9.248
 3783SOL     OW13355   0.398   5.022  10.811
 3783SOL    HW113356   0.376   5.094  10.749
 3783SOL    HW213357   0.320   4.964  10.800
 3784SOL     OW13358   1.618   5.031  10.582
 3784SOL    HW113359   1.658   5.005  10.666
 3784SOL    HW213360   1.554   5.099  10.612
 3785SOL     OW13361   1.030   4.848  10.022
 3785SOL    HW113362   0.962   4.791  10.063
 3785SOL    HW213363   1.096   4.784   9.994
 3786SOL     OW13364   1.017   3.961  10.303
 3786SOL    HW113365   1.010   3.917  10.216
 3786SOL    HW213366   1.025   3.884  10.362
 3787SOL     OW13367   0.594   5.175   9.796
 3787SOL    HW113368   0.661   5.143   9.733
 3787SOL    HW213369   0.528   5.213   9.737
 3788SOL     OW13370   1.706   4.105  10.704
 3788SOL    HW113371   1.769   4.179  10.704
 3788SOL    HW213372   1.750   4.043  10.641
 3789SOL     OW13373   0.245   5.079   9.575
 3789SOL    HW113374   0.149   5.083   9.560
 3789SOL    HW213375   0.249   5.093   9.672
 3790SOL     OW13376   0.146   4.750  11.036
 3790SOL    HW113377   0.066   4.723  11.082
 3790SOL    HW213378   0.216   4.695  11.076
 3791SOL     OW13379   0.687   3.914  10.782
 3791SOL    HW113380   0.772   3.895  10.737
 3791SOL    HW213381   0.718   3.934  10.872
 3792SOL     OW13382   0.078   4.063   9.387
 3792SOL    HW113383   0.009   4.038   9.325
 3792SOL    HW213384   0.125   4.132   9.338
 3793SOL     OW13385   1.442   4.566  10.712
 3793SOL    HW113386   1.391   4.638  10.673
 3793SOL    HW213387   1.532   4.591  10.685
 3794SOL     OW13388   0.073   3.902   9.626
 3794SOL    HW113389   0.067   3.962   9.550
 3794SOL    HW213390   0.158   3.857   9.607
 3795SOL     OW13391   1.213   5.064   9.431
 3795SOL    HW113392   1.127   5.021   9.436
 3795SOL    HW213393   1.233   5.077   9.526
 3796SOL     OW13394   0.600   4.525  10.737
 3796SOL    HW113395   0.656   4.605  10.727
 3796SOL    HW213396   0.671   4.459  10.751
 3797SOL     OW13397   1.517   5.472  10.295
 3797SOL    HW113398   1.549   5.515  10.215
 3797SOL    HW213399   1.595   5.475  10.353
 3798SOL     OW13400   0.705   4.285  11.021
 3798SOL    HW113401   0.744   4.358  11.074
 3798SOL    HW213402   0.762   4.209  11.039
 3799SOL     OW13403   0.384   5.455  10.866
 3799SOL    HW113404   0.308   5.511  10.847
 3799SOL    HW213405   0.345   5.394  10.932
 3800SOL     OW13406   1.675   4.617  10.578
 3800SOL    HW113407   1.670   4.526  10.545
 3800SOL    HW213408   1.652   4.671  10.501
 3801SOL     OW13409   1.212   4.055   9.777
 3801SOL    HW113410   1.270   3.977   9.771
 3801SOL    HW213411   1.248   4.101   9.856
 3802SOL     OW13412   0.615   4.461   9.967
 3802SOL    HW113413   0.638   4.555   9.963
 3802SOL    HW213414   0.539   4.457   9.904
 3803SOL     OW13415   1.767   4.023  10.953
 3803SOL    HW113416   1.738   4.051  10.864
 3803SOL    HW213417   1.691   4.046  11.007
 3804SOL     OW13418   1.753   4.668  10.832
 3804SOL    HW113419   1.745   4.764  10.841
 3804SOL    HW213420   1.741   4.654  10.736
 3805SOL     OW13421   0.854   5.088   9.347
 3805SOL    HW113422   0.829   5.108   9.439
 3805SOL    HW213423   0.881   5.174   9.310
 3806SOL     OW13424   0.658   5.519  10.227
 3806SOL    HW113425   0.652   5.616  10.236
 3806SOL    HW213426   0.753   5.505  10.224
 3807SOL     OW13427   0.873   4.681  10.168
 3807SOL    HW113428   0.928   4.614  10.212
 3807SOL    HW213429   0.853   4.743  10.239
 3808SOL     OW13430   1.093   4.719   9.405
 3808SOL    HW113431   1.059   4.773   9.331
 3808SOL    HW213432   1.160   4.663   9.361
 3809SOL     OW13433   1.857   5.276  10.153
 3809SOL    HW113434   1.774   5.268  10.105
 3809SOL    HW213435   1.845   5.215  10.227
 3810SOL     OW13436   0.082   4.970   9.981
 3810SOL    HW113437   0.092   4.912  10.058
 3810SOL    HW213438   0.155   4.941   9.924
 3811SOL     OW13439   0.674   5.136  10.933
 3811SOL    HW113440   0.606   5.080  10.977
 3811SOL    HW213441   0.625   5.217  10.914
 3812SOL     OW13442   1.807   3.924  10.536
 3812SOL    HW113443   1.824   3.829  10.547
 3812SOL    HW213444   1.823   3.935  10.441
 3813SOL     OW13445   0.417   4.159   9.824
 3813SOL    HW113446   0.447   4.089   9.765
 3813SOL    HW213447   0.371   4.110   9.894
 3814SOL     OW13448   1.725   5.213  10.410
 3814SOL    HW113449   1.645   5.183  10.365
 3814SOL    HW213450   1.722   5.157  10.490
 3815SOL     OW13451   0.330   4.276  10.595
 3815SOL    HW113452   0.387   4.212  10.641
 3815SOL    HW213453   0.341   4.252  10.501
 3816SOL     OW13454   0.831   5.312   9.983
 3816SOL    HW113455   0.817   5.372   9.908
 3816SOL    HW213456   0.747   5.266   9.991
 3817SOL     OW13457   1.426   3.966  10.434
 3817SOL    HW113458   1.473   3.900  10.486
 3817SOL    HW213459   1.367   4.008  10.500
 3818SOL     OW13460   1.015   3.733  10.458
 3818SOL    HW113461   0.962   3.667  10.412
 3818SOL    HW213462   1.101   3.687  10.467
 3819SOL     OW13463   0.778   5.054   9.625
 3819SOL    HW113464   0.753   4.960   9.628
 3819SOL    HW213465   0.856   5.055   9.683
 3820SOL     OW13466   0.597   5.287  10.596
 3820SOL    HW113467   0.608   5.369  10.649
 3820SOL    HW213468   0.685   5.278  10.557
 3821SOL     OW13469   1.314   3.769   9.471
 3821SOL    HW113470   1.330   3.692   9.415
 3821SOL    HW213471   1.222   3.751   9.501
 3822SOL     OW13472   1.289   4.193   9.992
 3822SOL    HW113473   1.232   4.271   9.990
 3822SOL    HW213474   1.276   4.159  10.083
 3823SOL     OW13475   1.603   3.932  10.191
 3823SOL    HW113476   1.525   3.946  10.246
 3823SOL    HW213477   1.602   4.010  10.133
 3824SOL     OW13478   0.053   4.799   9.610
 3824SOL    HW113479   0.149   4.797   9.604
 3824SOL    HW213480   0.032   4.705   9.629
 3825SOL     OW13481   0.883   5.367   9.639
 3825SOL    HW113482   0.808   5.355   9.578
 3825SOL    HW213483   0.861   5.450   9.686
 3826SOL     OW13484   0.244   6.240   0.119
 3826SOL    HW113485   0.160   6.211   0.160
 3826SOL    HW213486   0.224   6.238   0.025
 3827SOL     OW13487   0.199   5.883   1.034
 3827SOL    HW113488   0.247   5.842   1.110
 3827SOL    HW213489   0.182   5.807   0.977
 3828SOL     OW13490  11.095   5.958   0.645
 3828SOL    HW113491  11.018   5.992   0.691
 3828SOL    HW213492  11.063   5.871   0.611
 3829SOL     OW13493   0.566   6.873   1.186
 3829SOL    HW113494   0.483   6.875   1.137
 3829SOL    HW213495   0.568   6.962   1.224
 3830SOL     OW13496   1.540   7.112   0.722
 3830SOL    HW113497   1.506   7.083   0.808
 3830SOL    HW213498   1.465   7.102   0.661
 3831SOL     OW13499   1.116   6.282   0.707
 3831SOL    HW113500   1.166   6.362   0.682
 3831SOL    HW213501   1.087   6.304   0.796
 3832SOL     OW13502   1.770   6.176   0.218
 3832SOL    HW113503   1.720   6.209   0.143
 3832SOL    HW213504   1.706   6.123   0.267
 3833SOL     OW13505   0.738   6.743   1.020
 3833SOL    HW113506   0.679   6.787   1.085
 3833SOL    HW213507   0.779   6.822   0.981
 3834SOL     OW13508   0.880   6.327   1.791
 3834SOL    HW113509   0.862   6.392   1.860
 3834SOL    HW213510   0.911   6.383   1.717
 3835SOL     OW13511   0.678   6.581   0.639
 3835SOL    HW113512   0.748   6.571   0.706
 3835SOL    HW213513   0.615   6.640   0.683
 3836SOL     OW13514   0.697   6.743   1.803
 3836SOL    HW113515   0.744   6.825   1.828
 3836SOL    HW213516   0.612   6.776   1.770
 3837SOL     OW13517   0.328   6.997   1.073
 3837SOL    HW113518   0.250   6.961   1.027
 3837SOL    HW213519   0.368   7.054   1.004
 3838SOL     OW13520   1.465   7.086   1.371
 3838SOL    HW113521   1.524   7.165   1.379
 3838SOL    HW213522   1.409   7.095   1.449
 3839SOL     OW13523   0.455   5.963   1.451
 3839SOL    HW113524   0.539   5.920   1.471
 3839SOL    HW213525   0.389   5.902   1.487
 3840SOL     OW13526   1.617   6.050   0.742
 3840SOL    HW113527   1.531   6.079   0.707
 3840SOL    HW213528   1.632   6.115   0.812
 3841SOL     OW13529   0.267   7.258   0.496
 3841SOL    HW113530   0.257   7.345   0.538
 3841SOL    HW213531   0.309   7.283   0.413
 3842SOL     OW13532   1.132   6.933   1.672
 3842SOL    HW113533   1.169   6.930   1.761
 3842SOL    HW213534   1.085   6.848   1.669
 3843SOL     OW13535   0.243   6.989   0.519
 3843SOL    HW113536   0.251   7.087   0.518
 3843SOL    HW213537   0.172   6.977   0.584
 3844SOL     OW13538   0.268   6.706   0.912
 3844SOL    HW113539   0.259   6.621   0.958
 3844SOL    HW213540   0.195   6.757   0.951
 3845SOL     OW13541   0.619   7.390   1.410
 3845SOL    HW113542   0.546   7.360   1.466
 3845SOL    HW213543   0.632   7.482   1.439
 3846SOL     OW13544   0.597   6.573   0.145
 3846SOL    HW113545   0.642   6.641   0.094
 3846SOL    HW213546   0.629   6.594   0.236
 3847SOL     OW13547   1.607   5.695   1.502
 3847SOL    HW113548   1.609   5.772   1.443
 3847SOL    HW213549   1.614   5.736   1.589
 3848SOL     OW13550   0.131   6.231   0.544
 3848SOL    HW113551   0.113   6.136   0.554
 3848SOL    HW213552   0.116   6.266   0.633
 3849SOL     OW13553   1.857   7.329   0.359
 3849SOL    HW113554   1.911   7.312   0.438
 3849SOL    HW213555   1.879   7.422   0.339
 3850SOL     OW13556   0.062   7.184   0.126
 3850SOL    HW113557   0.045   7.095   0.163
 3850SOL    HW213558   0.075   7.238   0.205
 3851SOL     OW13559   1.685   6.490   0.587
 3851SOL    HW113560   1.777   6.469   0.565
 3851SOL    HW213561   1.666   6.562   0.525
 3852SOL     OW13562   1.639   6.719   0.437
 3852SOL    HW113563   1.713   6.747   0.382
 3852SOL    HW213564   1.644   6.781   0.513
 3853SOL     OW13565   0.116   6.307   1.591
 3853SOL    HW113566   0.196   6.358   1.612
 3853SOL    HW213567   0.048   6.377   1.583
 3854SOL     OW13568   0.613   6.997   0.750
 3854SOL    HW113569   0.573   6.907   0.753
 3854SOL    HW213570   0.604   7.015   0.654
 3855SOL     OW13571   1.274   6.808   1.425
 3855SOL    HW113572   1.316   6.746   1.364
 3855SOL    HW213573   1.327   6.798   1.506
 3856SOL     OW13574   0.828   5.589   0.478
 3856SOL    HW113575   0.855   5.683   0.484
 3856SOL    HW213576   0.731   5.595   0.489
 3857SOL     OW13577   0.172   6.579   1.251
 3857SOL    HW113578   0.256   6.533   1.235
 3857SOL    HW213579   0.107   6.521   1.209
 3858SOL     OW13580   1.550   6.568   0.211
 3858SOL    HW113581   1.468   6.525   0.242
 3858SOL    HW213582   1.578   6.616   0.290
 3859SOL     OW13583   1.186   7.389   1.620
 3859SOL    HW113584   1.175   7.445   1.543
 3859SOL    HW213585   1.205   7.303   1.580
 3860SOL     OW13586   0.325   5.828   1.791
 3860SOL    HW113587   0.386   5.886   1.838
 3860SOL    HW213588   0.241   5.845   1.837
 3861SOL     OW13589   1.463   7.018   0.964
 3861SOL    HW113590   1.396   7.034   1.034
 3861SOL    HW213591   1.440   6.927   0.936
 3862SOL     OW13592   1.652   7.325   0.593
 3862SOL    HW113593   1.653   7.285   0.504
 3862SOL    HW213594   1.619   7.251   0.646
 3863SOL     OW13595   0.588   6.307   0.247
 3863SOL    HW113596   0.604   6.392   0.203
 3863SOL    HW213597   0.532   6.330   0.323
 3864SOL     OW13598   1.277   5.916   0.911
 3864SOL    HW113599   1.190   5.883   0.939
 3864SOL    HW213600   1.335   5.879   0.980
 3865SOL     OW13601   1.572   7.238   0.320
 3865SOL    HW113602   1.666   7.263   0.311
 3865SOL    HW213603   1.548   7.225   0.226
 3866SOL     OW13604   0.798   6.208   1.472
 3866SOL    HW113605   0.773   6.171   1.558
 3866SOL    HW213606   0.762   6.142   1.409
 3867SOL     OW13607   1.400   6.067   1.667
 3867SOL    HW113608   1.400   6.125   1.746
 3867SOL    HW213609   1.455   5.992   1.695
 3868SOL     OW13610   0.969   6.472   1.580
 3868SOL    HW113611   1.008   6.391   1.540
 3868SOL    HW213612   0.915   6.505   1.506
 3869SOL     OW13613   0.981   5.973   1.232
 3869SOL    HW113614   0.891   5.998   1.256
 3869SOL    HW213615   0.969   5.922   1.151
 3870SOL     OW13616   1.051   6.265   0.412
 3870SOL    HW113617   1.065   6.283   0.506
 3870SOL    HW213618   0.962   6.223   0.412
 3871SOL     OW13619   0.101   6.383   0.775
 3871SOL    HW113620   0.181   6.386   0.831
 3871SOL    HW213621   0.053   6.460   0.810
 3872SOL     OW13622   0.883   5.957   0.225
 3872SOL    HW113623   0.934   6.006   0.158
 3872SOL    HW213624   0.890   5.865   0.193
 3873SOL     OW13625   1.722   6.167   1.839
 3873SOL    HW113626   1.681   6.245   1.796
 3873SOL    HW213627   1.740   6.111   1.762
 3874SOL     OW13628   1.355   6.755   0.581
 3874SOL    HW113629   1.435   6.743   0.527
 3874SOL    HW213630   1.301   6.809   0.521
 3875SOL     OW13631   0.580   5.781   0.891
 3875SOL    HW113632   0.586   5.798   0.987
 3875SOL    HW213633   0.569   5.870   0.855
 3876SOL     OW13634   0.985   7.011   0.493
 3876SOL    HW113635   0.951   7.083   0.436
 3876SOL    HW213636   0.991   7.054   0.579
 3877SOL     OW13637   0.378   7.401   0.839
 3877SOL    HW113638   0.399   7.306   0.847
 3877SOL    HW213639   0.461   7.440   0.872
 3878SOL     OW13640   1.811   6.622   0.869
 3878SOL    HW113641   1.752   6.623   0.793
 3878SOL    HW213642   1.749   6.614   0.943
 3879SOL     OW13643   1.217   7.142   1.510
 3879SOL    HW113644   1.197   7.072   1.575
 3879SOL    HW213645   1.174   7.108   1.431
 3880SOL     OW13646   0.329   6.547   0.265
 3880SOL    HW113647   0.402   6.562   0.204
 3880SOL    HW213648   0.303   6.456   0.244
 3881SOL     OW13649   1.484   6.333   0.706
 3881SOL    HW113650   1.487   6.317   0.802
 3881SOL    HW213651   1.565   6.384   0.688
 3882SOL     OW13652   0.459   6.867   1.729
 3882SOL    HW113653   0.431   6.872   1.635
 3882SOL    HW213654   0.373   6.860   1.774
 3883SOL     OW13655   1.084   7.358   0.211
 3883SOL    HW113656   1.043   7.306   0.282
 3883SOL    HW213657   1.121   7.289   0.153
 3884SOL     OW13658   0.180   5.864   1.503
 3884SOL    HW113659   0.100   5.910   1.536
 3884SOL    HW213660   0.209   5.818   1.583
 3885SOL     OW13661   1.627   6.926   0.092
 3885SOL    HW113662   1.588   7.012   0.071
 3885SOL    HW213663   1.566   6.864   0.049
 3886SOL     OW13664   0.456   7.329   0.307
 3886SOL    HW113665   0.498   7.374   0.382
 3886SOL    HW213666   0.531   7.317   0.246
 3887SOL     OW13667   1.395   5.683   0.461
 3887SOL    HW113668   1.393   5.648   0.370
 3887SOL    HW213669   1.488   5.707   0.472
 3888SOL     OW13670   0.263   7.383   1.224
 3888SOL    HW113671   0.304   7.298   1.250
 3888SOL    HW213672   0.228   7.364   1.136
 3889SOL     OW13673   0.955   7.280   0.889
 3889SOL    HW113674   1.042   7.239   0.897
 3889SOL    HW213675   0.914   7.228   0.817
 3890SOL     OW13676   0.416   6.278   0.474
 3890SOL    HW113677   0.425   6.180   0.473
 3890SOL    HW213678   0.322   6.286   0.497
 3891SOL     OW13679   1.543   5.840   1.738
 3891SOL    HW113680   1.539   5.851   1.836
 3891SOL    HW213681   1.483   5.765   1.727
 3892SOL     OW13682   0.597   5.661   0.113
 3892SOL    HW113683   0.691   5.667   0.135
 3892SOL    HW213684   0.597   5.666   0.016
 3893SOL     OW13685   0.779   5.847   1.755
 3893SOL    HW113686   0.855   5.786   1.764
 3893SOL    HW213687   0.722   5.822   1.830
 3894SOL     OW13688   0.872   7.126   1.195
 3894SOL    HW113689   0.868   7.096   1.102
 3894SOL    HW213690   0.928   7.058   1.236
 3895SOL     OW13691   1.327   6.175   1.427
 3895SOL    HW113692   1.366   6.143   1.511
 3895SOL    HW213693   1.378   6.255   1.407
 3896SOL     OW13694   0.829   6.985   0.946
 3896SOL    HW113695   0.916   6.971   0.902
 3896SOL    HW213696   0.769   6.995   0.870
 3897SOL     OW13697   0.945   6.099   0.904
 3897SOL    HW113698   0.917   6.080   0.812
 3897SOL    HW213699   0.977   6.012   0.933
 3898SOL     OW13700   0.566   5.643   0.493
 3898SOL    HW113701   0.482   5.647   0.542
 3898SOL    HW213702   0.559   5.723   0.436
 3899SOL     OW13703   1.440   6.751   0.013
 3899SOL    HW113704   1.481   6.685   0.072
 3899SOL    HW213705   1.366   6.787   0.065
 3900SOL     OW13706   0.257   5.596   0.181
 3900SOL    HW113707   0.286   5.671   0.126
 3900SOL    HW213708   0.341   5.554   0.206
 3901SOL     OW13709   0.937   5.841   0.480
 3901SOL    HW113710   0.912   5.883   0.395
 3901SOL    HW213711   1.034   5.852   0.478
 3902SOL     OW13712   1.081   6.265   1.460
 3902SOL    HW113713   1.030   6.184   1.470
 3902SOL    HW213714   1.173   6.233   1.456
 3903SOL     OW13715   1.228   7.176   0.789
 3903SOL    HW113716   1.235   7.243   0.719
 3903SOL    HW213717   1.307   7.193   0.842
 3904SOL     OW13718   0.472   6.758   0.736
 3904SOL    HW113719   0.403   6.743   0.803
 3904SOL    HW213720   0.428   6.722   0.656
 3905SOL     OW13721   1.243   7.399   0.624
 3905SOL    HW113722   1.290   7.470   0.578
 3905SOL    HW213723   1.184   7.447   0.684
 3906SOL     OW13724   1.030   6.108   0.042
 3906SOL    HW113725   0.994   6.196   0.025
 3906SOL    HW213726   1.122   6.127   0.066
 3907SOL     OW13727   0.071   6.167   1.368
 3907SOL    HW113728   0.167   6.161   1.365
 3907SOL    HW213729   0.061   6.223   1.447
 3908SOL     OW13730   0.583   5.807   1.167
 3908SOL    HW113731   0.632   5.734   1.207
 3908SOL    HW213732   0.495   5.799   1.208
 3909SOL     OW13733   0.870   6.027   0.662
 3909SOL    HW113734   0.836   6.093   0.600
 3909SOL    HW213735   0.884   5.951   0.602
 3910SOL     OW13736   1.022   5.651   0.769
 3910SOL    HW113737   0.965   5.663   0.692
 3910SOL    HW213738   0.987   5.569   0.809
 3911SOL     OW13739   1.424   6.767   0.875
 3911SOL    HW113740   1.356   6.701   0.894
 3911SOL    HW213741   1.421   6.768   0.777
 3912SOL     OW13742   1.495   6.190   0.981
 3912SOL    HW113743   1.444   6.108   0.989
 3912SOL    HW213744   1.555   6.187   1.058
 3913SOL     OW13745   1.868   6.408   0.359
 3913SOL    HW113746   1.908   6.353   0.429
 3913SOL    HW213747   1.827   6.341   0.304
 3914SOL     OW13748   0.495   7.051   0.144
 3914SOL    HW113749   0.417   7.023   0.195
 3914SOL    HW213750   0.492   6.987   0.070
 3915SOL     OW13751   1.667   6.879   0.658
 3915SOL    HW113752   1.763   6.881   0.672
 3915SOL    HW213753   1.637   6.965   0.689
 3916SOL     OW13754   1.393   6.180   0.076
 3916SOL    HW113755   1.348   6.146   0.156
 3916SOL    HW213756   1.459   6.111   0.062
 3917SOL     OW13757   0.531   5.839   0.306
 3917SOL    HW113758   0.537   5.773   0.234
 3917SOL    HW213759   0.506   5.918   0.254
 3918SOL     OW13760   1.728   6.809   1.571
 3918SOL    HW113761   1.819   6.774   1.574
 3918SOL    HW213762   1.747   6.903   1.587
 3919SOL     OW13763   1.053   6.942   1.333
 3919SOL    HW113764   0.975   6.908   1.381
 3919SOL    HW213765   1.126   6.894   1.379
 3920SOL     OW13766   1.603   7.192   1.630
 3920SOL    HW113767   1.612   7.226   1.539
 3920SOL    HW213768   1.690   7.149   1.641
 3921SOL     OW13769   1.125   6.803   1.099
 3921SOL    HW113770   1.069   6.843   1.167
 3921SOL    HW213771   1.094   6.846   1.018
 3922SOL     OW13772   1.595   6.673   1.071
 3922SOL    HW113773   1.604   6.741   1.140
 3922SOL    HW213774   1.543   6.721   1.003
 3923SOL     OW13775   0.927   5.683   1.405
 3923SOL    HW113776   0.954   5.668   1.312
 3923SOL    HW213777   1.004   5.730   1.441
 3924SOL     OW13778   0.997   6.703   1.732
 3924SOL    HW113779   0.903   6.719   1.751
 3924SOL    HW213780   0.994   6.626   1.672
 3925SOL     OW13781   0.717   6.628   0.381
 3925SOL    HW113782   0.697   6.606   0.474
 3925SOL    HW213783   0.802   6.582   0.367
 3926SOL     OW13784   0.388   6.413   1.253
 3926SOL    HW113785   0.463   6.419   1.315
 3926SOL    HW213786   0.374   6.317   1.251
 3927SOL     OW13787   1.275   5.966   1.264
 3927SOL    HW113788   1.294   6.046   1.317
 3927SOL    HW213789   1.181   5.979   1.239
 3928SOL     OW13790   0.062   7.203   1.385
 3928SOL    HW113791   0.021   7.246   1.308
 3928SOL    HW213792   0.151   7.181   1.352
 3929SOL     OW13793   0.351   6.680   0.504
 3929SOL    HW113794   0.369   6.764   0.460
 3929SOL    HW213795   0.345   6.619   0.428
 3930SOL     OW13796   0.551   6.134   0.866
 3930SOL    HW113797   0.577   6.194   0.792
 3930SOL    HW213798   0.618   6.157   0.933
 3931SOL     OW13799   1.218   6.929   0.396
 3931SOL    HW113800   1.266   7.007   0.429
 3931SOL    HW213801   1.127   6.947   0.427
 3932SOL     OW13802   1.297   7.055   1.172
 3932SOL    HW113803   1.359   7.059   1.248
 3932SOL    HW213804   1.236   6.985   1.199
 3933SOL     OW13805   1.573   6.199   0.458
 3933SOL    HW113806   1.532   6.233   0.539
 3933SOL    HW213807   1.588   6.280   0.408
 3934SOL     OW13808   0.325   7.119   1.306
 3934SOL    HW113809   0.317   7.063   1.226
 3934SOL    HW213810   0.422   7.135   1.304
 3935SOL     OW13811   0.427   6.319   1.614
 3935SOL    HW113812   0.485   6.362   1.549
 3935SOL    HW213813   0.472   6.235   1.624
 3936SOL     OW13814   1.627   6.358   1.684
 3936SOL    HW113815   1.536   6.393   1.680
 3936SOL    HW213816   1.668   6.406   1.609
 3937SOL     OW13817   1.001   5.692   1.767
 3937SOL    HW113818   1.052   5.769   1.741
 3937SOL    HW213819   1.051   5.621   1.723
 3938SOL     OW13820   0.494   5.610   1.758
 3938SOL    HW113821   0.457   5.551   1.691
 3938SOL    HW213822   0.427   5.682   1.762
 3939SOL     OW13823   0.593   6.483   1.037
 3939SOL    HW113824   0.628   6.573   1.038
 3939SOL    HW213825   0.530   6.482   1.110
 3940SOL     OW13826   1.352   6.445   1.015
 3940SOL    HW113827   1.264   6.407   0.999
 3940SOL    HW213828   1.408   6.366   1.016
 3941SOL     OW13829   1.235   6.093   0.277
 3941SOL    HW113830   1.237   6.021   0.343
 3941SOL    HW213831   1.172   6.154   0.319
 3942SOL     OW13832   0.300   5.771   1.248
 3942SOL    HW113833   0.259   5.802   1.331
 3942SOL    HW213834   0.286   5.675   1.252
 3943SOL     OW13835   0.057   6.900   1.284
 3943SOL    HW113836   0.110   6.844   1.343
 3943SOL    HW213837   0.048   6.982   1.335
 3944SOL     OW13838   0.733   6.224   1.061
 3944SOL    HW113839   0.812   6.202   1.008
 3944SOL    HW213840   0.710   6.315   1.036
 3945SOL     OW13841   1.759   6.530   1.842
 3945SOL    HW113842   1.703   6.472   1.786
 3945SOL    HW213843   1.699   6.546   1.916
 3946SOL     OW13844   0.318   5.651   0.612
 3946SOL    HW113845   0.291   5.738   0.646
 3946SOL    HW213846   0.332   5.603   0.696
 3947SOL     OW13847   1.602   5.952   0.350
 3947SOL    HW113848   1.635   5.885   0.412
 3947SOL    HW213849   1.588   6.030   0.407
 3948SOL     OW13850   1.080   6.328   0.981
 3948SOL    HW113851   1.050   6.338   1.074
 3948SOL    HW213852   1.041   6.241   0.959
 3949SOL     OW13853   0.976   7.151   1.698
 3949SOL    HW113854   0.965   7.200   1.614
 3949SOL    HW213855   1.017   7.067   1.668
 3950SOL     OW13856   0.354   6.486   1.814
 3950SOL    HW113857   0.436   6.500   1.863
 3950SOL    HW213858   0.379   6.414   1.753
 3951SOL     OW13859   1.520   5.860   0.109
 3951SOL    HW113860   1.452   5.800   0.142
 3951SOL    HW213861   1.558   5.893   0.193
 3952SOL     OW13862   1.292   6.432   0.027
 3952SOL    HW113863   1.331   6.345   0.050
 3952SOL    HW213864   1.300   6.431  11.032
 3953SOL     OW13865   1.064   6.942   0.846
 3953SOL    HW113866   1.073   6.863   0.789
 3953SOL    HW213867   1.132   7.004   0.813
 3954SOL     OW13868   0.286   6.418   0.971
 3954SOL    HW113869   0.374   6.440   0.938
 3954SOL    HW213870   0.302   6.332   1.013
 3955SOL     OW13871   0.324   6.128   0.999
 3955SOL    HW113872   0.303   6.035   0.985
 3955SOL    HW213873   0.405   6.139   0.943
 3956SOL     OW13874   1.158   5.959   1.684
 3956SOL    HW113875   1.116   6.008   1.758
 3956SOL    HW213876   1.245   6.002   1.680
 3957SOL     OW13877   1.165   5.789   1.475
 3957SOL    HW113878   1.166   5.855   1.547
 3957SOL    HW213879   1.212   5.837   1.405
 3958SOL     OW13880  11.093   6.925   0.224
 3958SOL    HW113881  11.014   6.923   0.171
 3958SOL    HW213882   0.003   6.830   0.248
 3959SOL     OW13883   0.147   7.375   0.963
 3959SOL    HW113884   0.110   7.309   0.901
 3959SOL    HW213885   0.229   7.399   0.914
 3960SOL     OW13886   0.483   7.162   0.921
 3960SOL    HW113887   0.555   7.223   0.943
 3960SOL    HW213888   0.528   7.100   0.859
 3961SOL     OW13889   0.958   6.348   1.233
 3961SOL    HW113890   1.009   6.323   1.312
 3961SOL    HW213891   0.870   6.315   1.254
 3962SOL     OW13892   0.207   6.110   1.748
 3962SOL    HW113893   0.253   6.065   1.676
 3962SOL    HW213894   0.165   6.183   1.698
 3963SOL     OW13895   1.384   6.489   1.648
 3963SOL    HW113896   1.403   6.584   1.642
 3963SOL    HW213897   1.368   6.466   1.555
 3964SOL     OW13898   0.798   6.159   0.382
 3964SOL    HW113899   0.821   6.082   0.327
 3964SOL    HW213900   0.725   6.198   0.331
 3965SOL     OW13901   1.653   6.211   1.215
 3965SOL    HW113902   1.621   6.137   1.268
 3965SOL    HW213903   1.732   6.173   1.171
 3966SOL     OW13904   0.240   7.119   1.722
 3966SOL    HW113905   0.230   7.183   1.793
 3966SOL    HW213906   0.234   7.034   1.770
 3967SOL     OW13907   0.703   6.055   1.271
 3967SOL    HW113908   0.651   5.980   1.241
 3967SOL    HW213909   0.704   6.115   1.193
 3968SOL     OW13910   0.909   7.278   1.464
 3968SOL    HW113911   0.889   7.250   1.374
 3968SOL    HW213912   0.899   7.375   1.459
 3969SOL     OW13913   0.461   6.073   0.191
 3969SOL    HW113914   0.521   6.148   0.202
 3969SOL    HW213915   0.377   6.120   0.175
 3970SOL     OW13916   0.162   6.713   1.485
 3970SOL    HW113917   0.172   6.650   1.560
 3970SOL    HW213918   0.174   6.655   1.406
 3971SOL     OW13919   1.317   6.627   1.223
 3971SOL    HW113920   1.338   6.572   1.145
 3971SOL    HW213921   1.249   6.687   1.187
 3972SOL     OW13922   1.319   6.450   0.308
 3972SOL    HW113923   1.237   6.414   0.345
 3972SOL    HW213924   1.301   6.449   0.213
 3973SOL     OW13925   1.749   7.334   1.123
 3973SOL    HW113926   1.827   7.349   1.065
 3973SOL    HW213927   1.741   7.236   1.116
 3974SOL     OW13928   1.231   7.309   1.114
 3974SOL    HW113929   1.323   7.329   1.093
 3974SOL    HW213930   1.235   7.214   1.136
 3975SOL     OW13931   0.082   6.867   1.022
 3975SOL    HW113932   0.074   6.880   1.119
 3975SOL    HW213933   0.014   6.802   1.003
 3976SOL     OW13934   0.677   7.239   1.736
 3976SOL    HW113935   0.645   7.330   1.732
 3976SOL    HW213936   0.759   7.244   1.686
 3977SOL     OW13937   0.899   5.693   0.155
 3977SOL    HW113938   0.937   5.656   0.074
 3977SOL    HW213939   0.941   5.635   0.221
 3978SOL     OW13940   1.683   5.730   0.505
 3978SOL    HW113941   1.761   5.713   0.452
 3978SOL    HW213942   1.681   5.653   0.566
 3979SOL     OW13943   1.358   7.154   0.490
 3979SOL    HW113944   1.427   7.166   0.423
 3979SOL    HW213945   1.323   7.244   0.499
 3980SOL     OW13946   0.150   7.386   1.835
 3980SOL    HW113947   0.112   7.314   1.890
 3980SOL    HW213948   0.205   7.431   1.901
 3981SOL     OW13949   1.258   6.501   0.636
 3981SOL    HW113950   1.340   6.454   0.655
 3981SOL    HW213951   1.292   6.588   0.607
 3982SOL     OW13952   0.805   6.842   1.439
 3982SOL    HW113953   0.776   6.890   1.519
 3982SOL    HW213954   0.728   6.854   1.382
 3983SOL     OW13955   0.695   7.218   0.169
 3983SOL    HW113956   0.705   7.222   0.074
 3983SOL    HW213957   0.623   7.152   0.177
 3984SOL     OW13958   1.618   7.300   1.380
 3984SOL    HW113959   1.663   7.321   1.297
 3984SOL    HW213960   1.600   7.388   1.418
 3985SOL     OW13961   1.843   5.755   0.972
 3985SOL    HW113962   1.864   5.664   0.944
 3985SOL    HW213963   1.757   5.773   0.928
 3986SOL     OW13964   0.249   5.891   0.722
 3986SOL    HW113965   0.163   5.905   0.679
 3986SOL    HW213966   0.247   5.956   0.792
 3987SOL     OW13967   1.210   7.181   0.042
 3987SOL    HW113968   1.216   7.084   0.054
 3987SOL    HW213969   1.150   7.189  11.067
 3988SOL     OW13970   0.803   6.576   1.390
 3988SOL    HW113971   0.836   6.579   1.299
 3988SOL    HW213972   0.814   6.668   1.420
 3989SOL     OW13973   0.938   6.510   0.308
 3989SOL    HW113974   0.979   6.534   0.222
 3989SOL    HW213975   0.967   6.419   0.321
 3990SOL     OW13976   1.501   7.183   0.044
 3990SOL    HW113977   1.405   7.197   0.047
 3990SOL    HW213978   1.523   7.202  11.054
 3991SOL     OW13979   0.380   6.874   1.481
 3991SOL    HW113980   0.360   6.953   1.429
 3991SOL    HW213981   0.304   6.815   1.466
 3992SOL     OW13982   1.607   6.891   1.264
 3992SOL    HW113983   1.670   6.884   1.338
 3992SOL    HW213984   1.545   6.959   1.298
 3993SOL     OW13985   1.050   6.694   0.728
 3993SOL    HW113986   0.969   6.646   0.751
 3993SOL    HW213987   1.104   6.626   0.684
 3994SOL     OW13988   1.035   5.812   0.992
 3994SOL    HW113989   1.023   5.770   0.905
 3994SOL    HW213990   1.035   5.734   1.051
 3995SOL     OW13991   0.607   7.059   0.489
 3995SOL    HW113992   0.658   7.012   0.420
 3995SOL    HW213993   0.532   7.094   0.440
 3996SOL     OW13994   1.709   5.951   1.377
 3996SOL    HW113995   1.772   6.025   1.372
 3996SOL    HW213996   1.750   5.886   1.316
 3997SOL     OW13997   0.255   6.954   0.256
 3997SOL    HW113998   0.160   6.946   0.237
 3997SOL    HW213999   0.255   6.959   0.354
 3998SOL     OW14000   0.126   6.585   1.740
 3998SOL    HW114001   0.060   6.555   1.804
 3998SOL    HW214002   0.209   6.545   1.774
 3999SOL     OW14003   0.690   5.782   1.490
 3999SOL    HW114004   0.776   5.749   1.457
 3999SOL    HW214005   0.713   5.815   1.578
 4000SOL     OW14006   0.073   5.930   0.066
 4000SOL    HW114007  11.088   5.896   0.039
 4000SOL    HW214008   0.089   5.996  11.099
 4001SOL     OW14009   1.446   6.439   1.376
 4001SOL    HW114010   1.402   6.507   1.320
 4001SOL    HW214011   1.539   6.466   1.368
 4002SOL     OW14012   0.070   5.742   0.320
 4002SOL    HW114013   0.063   5.815   0.257
 4002SOL    HW214014   0.139   5.687   0.280
 4003SOL     OW14015   1.196   6.909   0.125
 4003SOL    HW114016   1.099   6.904   0.115
 4003SOL    HW214017   1.207   6.907   0.222
 4004SOL     OW14018   0.610   6.389   1.407
 4004SOL    HW114019   0.661   6.472   1.403
 4004SOL    HW214020   0.682   6.327   1.429
 4005SOL     OW14021   1.516   7.370   0.966
 4005SOL    HW114022   1.548   7.402   0.881
 4005SOL    HW214023   1.598   7.350   1.013
 4006SOL     OW14024   0.710   6.118   1.709
 4006SOL    HW114025   0.761   6.185   1.758
 4006SOL    HW214026   0.744   6.034   1.744
 4007SOL     OW14027   1.458   6.756   1.628
 4007SOL    HW114028   1.451   6.772   1.725
 4007SOL    HW214029   1.551   6.782   1.612
 4008SOL     OW14030   0.397   7.308   1.567
 4008SOL    HW114031   0.312   7.341   1.537
 4008SOL    HW214032   0.374   7.220   1.601
 4009SOL     OW14033   1.699   6.480   1.238
 4009SOL    HW114034   1.673   6.388   1.215
 4009SOL    HW214035   1.654   6.535   1.170
 4010SOL     OW14036   1.219   5.910   0.479
 4010SOL    HW114037   1.280   5.835   0.478
 4010SOL    HW214038   1.251   5.963   0.555
 4011SOL     OW14039   0.603   6.323   0.677
 4011SOL    HW114040   0.633   6.414   0.663
 4011SOL    HW214041   0.539   6.312   0.604
 4012SOL     OW14042   1.765   5.964   1.638
 4012SOL    HW114043   1.735   5.967   1.545
 4012SOL    HW214044   1.692   5.916   1.680
 4013SOL     OW14045   1.742   6.519   1.501
 4013SOL    HW114046   1.738   6.616   1.508
 4013SOL    HW214047   1.745   6.506   1.404
 4014SOL     OW14048   0.897   6.940   0.053
 4014SOL    HW114049   0.809   6.944   0.093
 4014SOL    HW214050   0.905   7.025   0.007
 4015SOL     OW14051   0.657   7.386   0.918
 4015SOL    HW114052   0.652   7.483   0.908
 4015SOL    HW214053   0.751   7.368   0.924
 4016SOL     OW14054   0.863   6.529   0.849
 4016SOL    HW114055   0.921   6.472   0.900
 4016SOL    HW214056   0.830   6.592   0.915
 4017SOL     OW14057   1.041   6.567   0.072
 4017SOL    HW114058   1.045   6.639   0.008
 4017SOL    HW214059   1.131   6.531   0.066
 4018SOL     OW14060   1.851   7.144   0.802
 4018SOL    HW114061   1.755   7.147   0.798
 4018SOL    HW214062   1.868   7.087   0.878
 4019SOL     OW14063   0.210   6.878   1.854
 4019SOL    HW114064   0.176   6.789   1.839
 4019SOL    HW214065   0.216   6.883   1.951
 4020SOL     OW14066   0.091   6.810   0.658
 4020SOL    HW114067   0.118   6.758   0.734
 4020SOL    HW214068   0.160   6.790   0.593
 4021SOL     OW14069   0.667   6.986   1.617
 4021SOL    HW114070   0.589   6.940   1.650
 4021SOL    HW214071   0.663   7.071   1.664
 4022SOL     OW14072   1.821   5.746   1.234
 4022SOL    HW114073   1.824   5.649   1.234
 4022SOL    HW214074   1.827   5.764   1.137
 4023SOL     OW14075   0.411   6.003   0.497
 4023SOL    HW114076   0.466   5.952   0.436
 4023SOL    HW214077   0.385   5.939   0.564
 4024SOL     OW14078   1.718   7.073   1.076
 4024SOL    HW114079   1.630   7.051   1.041
 4024SOL    HW214080   1.720   7.017   1.155
 4025SOL     OW14081   0.324   6.112   1.272
 4025SOL    HW114082   0.380   6.069   1.341
 4025SOL    HW214083   0.369   6.085   1.191
 4026SOL     OW14084   0.830   7.178   0.674
 4026SOL    HW114085   0.820   7.201   0.581
 4026SOL    HW214086   0.748   7.129   0.693
 4027SOL     OW14087   1.434   5.833   1.097
 4027SOL    HW114088   1.465   5.751   1.136
 4027SOL    HW214089   1.381   5.873   1.169
 4028SOL     OW14090   1.009   5.584   1.146
 4028SOL    HW114091   0.953   5.516   1.106
 4028SOL    HW214092   1.097   5.540   1.147
 4029SOL     OW14093   0.761   6.897   0.334
 4029SOL    HW114094   0.741   6.802   0.344
 4029SOL    HW214095   0.850   6.902   0.372
 4030SOL     OW14096   0.593   7.141   1.281
 4030SOL    HW114097   0.604   7.229   1.321
 4030SOL    HW214098   0.685   7.126   1.253
 4031SOL     OW14099   1.323   5.614   0.180
 4031SOL    HW114100   1.350   5.573   0.098
 4031SOL    HW214101   1.233   5.579   0.192
 4032SOL     OW14102   1.292   6.071   0.697
 4032SOL    HW114103   1.226   6.142   0.703
 4032SOL    HW214104   1.281   6.024   0.782
 4033SOL     OW14105   1.600   5.795   0.858
 4033SOL    HW114106   1.525   5.807   0.918
 4033SOL    HW214107   1.591   5.872   0.798
 4034SOL     OW14108   0.064   6.674   0.285
 4034SOL    HW114109   0.160   6.670   0.294
 4034SOL    HW214110   0.040   6.582   0.306
 4035SOL     OW14111   0.893   7.228   0.366
 4035SOL    HW114112   0.823   7.216   0.298
 4035SOL    HW214113   0.867   7.314   0.406
 4036SOL     OW14114   0.249   6.242   1.990
 4036SOL    HW114115   0.165   6.218   2.033
 4036SOL    HW214116   0.247   6.194   1.906
 4037SOL     OW14117   0.222   5.883   2.864
 4037SOL    HW114118   0.253   5.856   2.953
 4037SOL    HW214119   0.165   5.809   2.841
 4038SOL     OW14120  11.095   5.967   2.498
 4038SOL    HW114121  11.021   5.993   2.553
 4038SOL    HW214122  11.071   5.876   2.470
 4039SOL     OW14123   0.563   6.871   3.033
 4039SOL    HW114124   0.485   6.818   3.010
 4039SOL    HW214125   0.526   6.960   3.027
 4040SOL     OW14126   1.547   7.109   2.580
 4040SOL    HW114127   1.515   7.080   2.668
 4040SOL    HW214128   1.469   7.100   2.523
 4041SOL     OW14129   1.131   6.271   2.571
 4041SOL    HW114130   1.164   6.359   2.544
 4041SOL    HW214131   1.100   6.290   2.661
 4042SOL     OW14132   1.775   6.184   2.096
 4042SOL    HW114133   1.748   6.181   2.002
 4042SOL    HW214134   1.710   6.126   2.138
 4043SOL     OW14135   0.778   6.765   2.905
 4043SOL    HW114136   0.701   6.800   2.954
 4043SOL    HW214137   0.799   6.841   2.848
 4044SOL     OW14138   0.894   6.328   3.662
 4044SOL    HW114139   0.865   6.392   3.728
 4044SOL    HW214140   0.918   6.384   3.586
 4045SOL     OW14141   0.688   6.598   2.503
 4045SOL    HW114142   0.750   6.586   2.577
 4045SOL    HW214143   0.616   6.649   2.544
 4046SOL     OW14144   0.705   6.754   3.664
 4046SOL    HW114145   0.749   6.835   3.698
 4046SOL    HW214146   0.616   6.785   3.638
 4047SOL     OW14147   0.321   7.025   2.935
 4047SOL    HW114148   0.243   6.983   2.892
 4047SOL    HW214149   0.360   7.074   2.861
 4048SOL     OW14150   1.468   7.092   3.230
 4048SOL    HW114151   1.522   7.172   3.244
 4048SOL    HW214152   1.406   7.097   3.305
 4049SOL     OW14153   0.419   5.993   3.402
 4049SOL    HW114154   0.508   5.955   3.385
 4049SOL    HW214155   0.360   5.924   3.368
 4050SOL     OW14156   1.607   6.038   2.605
 4050SOL    HW114157   1.529   6.078   2.564
 4050SOL    HW214158   1.605   6.080   2.692
 4051SOL     OW14159   0.241   7.259   2.350
 4051SOL    HW114160   0.226   7.344   2.394
 4051SOL    HW214161   0.298   7.285   2.276
 4052SOL     OW14162   1.122   6.938   3.531
 4052SOL    HW114163   1.166   6.930   3.617
 4052SOL    HW214164   1.082   6.850   3.523
 4053SOL     OW14165   0.229   6.989   2.372
 4053SOL    HW114166   0.225   7.087   2.374
 4053SOL    HW214167   0.160   6.966   2.436
 4054SOL     OW14168   0.264   6.695   2.771
 4054SOL    HW114169   0.246   6.610   2.813
 4054SOL    HW214170   0.195   6.753   2.806
 4055SOL     OW14171   0.608   7.391   3.270
 4055SOL    HW114172   0.527   7.371   3.321
 4055SOL    HW214173   0.628   7.482   3.301
 4056SOL     OW14174   0.581   6.575   1.978
 4056SOL    HW114175   0.629   6.629   1.912
 4056SOL    HW214176   0.624   6.605   2.061
 4057SOL     OW14177   1.613   5.693   3.357
 4057SOL    HW114178   1.600   5.772   3.304
 4057SOL    HW214179   1.620   5.731   3.446
 4058SOL     OW14180   0.124   6.219   2.412
 4058SOL    HW114181   0.097   6.126   2.420
 4058SOL    HW214182   0.107   6.255   2.501
 4059SOL     OW14183   1.845   7.324   2.210
 4059SOL    HW114184   1.918   7.305   2.273
 4059SOL    HW214185   1.863   7.416   2.186
 4060SOL     OW14186   0.056   7.179   1.976
 4060SOL    HW114187   0.037   7.085   1.991
 4060SOL    HW214188   0.029   7.220   2.059
 4061SOL     OW14189   1.688   6.482   2.477
 4061SOL    HW114190   1.765   6.451   2.428
 4061SOL    HW214191   1.655   6.552   2.419
 4062SOL     OW14192   1.637   6.699   2.308
 4062SOL    HW114193   1.727   6.700   2.271
 4062SOL    HW214194   1.645   6.769   2.376
 4063SOL     OW14195   0.125   6.327   3.451
 4063SOL    HW114196   0.211   6.366   3.473
 4063SOL    HW214197   0.071   6.405   3.428
 4064SOL     OW14198   0.604   6.984   2.615
 4064SOL    HW114199   0.565   6.895   2.629
 4064SOL    HW214200   0.589   6.992   2.518
 4065SOL     OW14201   1.270   6.814   3.288
 4065SOL    HW114202   1.311   6.750   3.227
 4065SOL    HW214203   1.325   6.803   3.368
 4066SOL     OW14204   0.828   5.583   2.360
 4066SOL    HW114205   0.858   5.676   2.355
 4066SOL    HW214206   0.732   5.595   2.367
 4067SOL     OW14207   0.168   6.573   3.102
 4067SOL    HW114208   0.253   6.529   3.088
 4067SOL    HW214209   0.104   6.504   3.079
 4068SOL     OW14210   1.555   6.540   2.033
 4068SOL    HW114211   1.476   6.490   2.058
 4068SOL    HW214212   1.583   6.577   2.118
 4069SOL     OW14213   1.164   7.384   3.474
 4069SOL    HW114214   1.172   7.455   3.408
 4069SOL    HW214215   1.201   7.307   3.427
 4070SOL     OW14216   0.324   5.816   3.676
 4070SOL    HW114217   0.389   5.880   3.706
 4070SOL    HW214218   0.242   5.848   3.718
 4071SOL     OW14219   1.466   7.016   2.825
 4071SOL    HW114220   1.405   7.035   2.898
 4071SOL    HW214221   1.438   6.926   2.797
 4072SOL     OW14222   1.667   7.314   2.463
 4072SOL    HW114223   1.647   7.280   2.374
 4072SOL    HW214224   1.630   7.244   2.519
 4073SOL     OW14225   0.591   6.300   2.116
 4073SOL    HW114226   0.599   6.392   2.088
 4073SOL    HW214227   0.522   6.304   2.186
 4074SOL     OW14228   1.278   5.918   2.776
 4074SOL    HW114229   1.187   5.889   2.801
 4074SOL    HW214230   1.332   5.878   2.847
 4075SOL     OW14231   1.573   7.238   2.175
 4075SOL    HW114232   1.669   7.256   2.179
 4075SOL    HW214233   1.564   7.225   2.079
 4076SOL     OW14234   0.796   6.237   3.328
 4076SOL    HW114235   0.777   6.193   3.413
 4076SOL    HW214236   0.761   6.171   3.264
 4077SOL     OW14237   1.398   6.073   3.533
 4077SOL    HW114238   1.407   6.129   3.612
 4077SOL    HW214239   1.455   5.997   3.554
 4078SOL     OW14240   0.960   6.471   3.436
 4078SOL    HW114241   1.000   6.389   3.401
 4078SOL    HW214242   0.900   6.495   3.363
 4079SOL     OW14243   0.972   5.999   3.098
 4079SOL    HW114244   0.893   6.000   3.155
 4079SOL    HW214245   0.942   5.947   3.023
 4080SOL     OW14246   1.045   6.275   2.268
 4080SOL    HW114247   1.067   6.295   2.360
 4080SOL    HW214248   0.961   6.226   2.276
 4081SOL     OW14249   0.092   6.389   2.625
 4081SOL    HW114250   0.173   6.378   2.678
 4081SOL    HW214251   0.050   6.463   2.673
 4082SOL     OW14252   0.139   7.406   3.425
 4082SOL    HW114253   0.138   7.397   3.523
 4082SOL    HW214254   0.051   7.440   3.406
 4083SOL     OW14255   0.878   5.967   2.070
 4083SOL    HW114256   0.928   6.020   2.006
 4083SOL    HW214257   0.891   5.878   2.035
 4084SOL     OW14258   1.728   6.178   3.702
 4084SOL    HW114259   1.688   6.254   3.654
 4084SOL    HW214260   1.750   6.119   3.627
 4085SOL     OW14261   1.355   6.741   2.436
 4085SOL    HW114262   1.429   6.729   2.375
 4085SOL    HW214263   1.301   6.806   2.387
 4086SOL     OW14264   0.580   5.794   2.752
 4086SOL    HW114265   0.581   5.795   2.851
 4086SOL    HW214266   0.570   5.888   2.731
 4087SOL     OW14267   0.984   7.031   2.355
 4087SOL    HW114268   0.946   7.095   2.291
 4087SOL    HW214269   0.993   7.086   2.434
 4088SOL     OW14270   0.374   7.408   2.695
 4088SOL    HW114271   0.399   7.316   2.717
 4088SOL    HW214272   0.452   7.458   2.723
 4089SOL     OW14273   1.815   6.634   2.748
 4089SOL    HW114274   1.762   6.632   2.667
 4089SOL    HW214275   1.750   6.622   2.818
 4090SOL     OW14276   1.219   7.151   3.356
 4090SOL    HW114277   1.203   7.090   3.430
 4090SOL    HW214278   1.181   7.098   3.283
 4091SOL     OW14279   0.323   6.537   2.114
 4091SOL    HW114280   0.398   6.558   2.057
 4091SOL    HW214281   0.295   6.450   2.081
 4092SOL     OW14282   1.475   6.340   2.582
 4092SOL    HW114283   1.482   6.315   2.675
 4092SOL    HW214284   1.558   6.388   2.566
 4093SOL     OW14285   0.462   6.846   3.583
 4093SOL    HW114286   0.431   6.849   3.491
 4093SOL    HW214287   0.380   6.865   3.632
 4094SOL     OW14288   1.090   7.368   2.102
 4094SOL    HW114289   1.026   7.311   2.148
 4094SOL    HW214290   1.113   7.316   2.022
 4095SOL     OW14291   0.183   5.847   3.346
 4095SOL    HW114292   0.113   5.902   3.384
 4095SOL    HW214293   0.192   5.778   3.414
 4096SOL     OW14294   1.617   6.946   1.963
 4096SOL    HW114295   1.590   7.031   1.925
 4096SOL    HW214296   1.555   6.882   1.924
 4097SOL     OW14297   0.445   7.321   2.175
 4097SOL    HW114298   0.492   7.370   2.246
 4097SOL    HW214299   0.518   7.277   2.129
 4098SOL     OW14300   1.389   5.716   2.314
 4098SOL    HW114301   1.383   5.668   2.230
 4098SOL    HW214302   1.485   5.722   2.327
 4099SOL     OW14303   0.244   7.384   3.082
 4099SOL    HW114304   0.268   7.299   3.122
 4099SOL    HW214305   0.211   7.359   2.994
 4100SOL     OW14306   0.954   7.274   2.758
 4100SOL    HW114307   1.045   7.239   2.749
 4100SOL    HW214308   0.910   7.228   2.684
 4101SOL     OW14309   0.408   6.280   2.321
 4101SOL    HW114310   0.428   6.186   2.336
 4101SOL    HW214311   0.315   6.281   2.347
 4102SOL     OW14312   1.548   5.849   3.591
 4102SOL    HW114313   1.541   5.846   3.689
 4102SOL    HW214314   1.480   5.785   3.566
 4103SOL     OW14315   0.637   5.716   1.966
 4103SOL    HW114316   0.708   5.657   1.993
 4103SOL    HW214317   0.591   5.663   1.898
 4104SOL     OW14318   0.791   5.861   3.674
 4104SOL    HW114319   0.865   5.805   3.642
 4104SOL    HW214320   0.722   5.841   3.609
 4105SOL     OW14321   0.870   7.108   3.042
 4105SOL    HW114322   0.872   7.088   2.946
 4105SOL    HW214323   0.934   7.045   3.079
 4106SOL     OW14324   1.333   6.176   3.293
 4106SOL    HW114325   1.366   6.144   3.379
 4106SOL    HW214326   1.389   6.254   3.276
 4107SOL     OW14327   0.813   7.007   2.785
 4107SOL    HW114328   0.899   6.986   2.743
 4107SOL    HW214329   0.750   6.996   2.711
 4108SOL     OW14330   0.944   6.129   2.770
 4108SOL    HW114331   0.922   6.117   2.674
 4108SOL    HW214332   0.962   6.037   2.794
 4109SOL     OW14333   0.565   5.633   2.359
 4109SOL    HW114334   0.488   5.635   2.418
 4109SOL    HW214335   0.550   5.713   2.303
 4110SOL     OW14336   1.441   6.766   1.891
 4110SOL    HW114337   1.466   6.690   1.946
 4110SOL    HW214338   1.352   6.789   1.921
 4111SOL     OW14339   0.292   5.620   2.054
 4111SOL    HW114340   0.354   5.694   2.040
 4111SOL    HW214341   0.350   5.554   2.098
 4112SOL     OW14342   0.931   5.842   2.339
 4112SOL    HW114343   0.910   5.899   2.264
 4112SOL    HW214344   1.028   5.853   2.346
 4113SOL     OW14345   1.082   6.260   3.320
 4113SOL    HW114346   1.032   6.178   3.329
 4113SOL    HW214347   1.175   6.230   3.319
 4114SOL     OW14348   1.212   7.193   2.660
 4114SOL    HW114349   1.225   7.249   2.581
 4114SOL    HW214350   1.297   7.199   2.704
 4115SOL     OW14351   0.464   6.745   2.589
 4115SOL    HW114352   0.390   6.729   2.651
 4115SOL    HW214353   0.423   6.723   2.502
 4116SOL     OW14354   1.263   7.397   2.476
 4116SOL    HW114355   1.308   7.463   2.419
 4116SOL    HW214356   1.211   7.454   2.534
 4117SOL     OW14357   1.066   6.113   1.887
 4117SOL    HW114358   1.014   6.194   1.872
 4117SOL    HW214359   1.133   6.140   1.953
 4118SOL     OW14360   0.066   6.154   3.253
 4118SOL    HW114361   0.156   6.141   3.219
 4118SOL    HW214362   0.079   6.226   3.318
 4119SOL     OW14363   0.582   5.791   3.020
 4119SOL    HW114364   0.630   5.772   3.103
 4119SOL    HW214365   0.492   5.798   3.054
 4120SOL     OW14366   0.883   6.051   2.522
 4120SOL    HW114367   0.836   6.096   2.449
 4120SOL    HW214368   0.895   5.962   2.485
 4121SOL     OW14369   1.027   5.644   2.621
 4121SOL    HW114370   0.961   5.644   2.550
 4121SOL    HW214371   0.994   5.574   2.680
 4122SOL     OW14372   1.418   6.763   2.740
 4122SOL    HW114373   1.381   6.677   2.767
 4122SOL    HW214374   1.411   6.757   2.643
 4123SOL     OW14375   1.493   6.155   2.839
 4123SOL    HW114376   1.431   6.082   2.852
 4123SOL    HW214377   1.539   6.162   2.925
 4124SOL     OW14378   1.854   6.398   2.242
 4124SOL    HW114379   1.898   6.343   2.310
 4124SOL    HW214380   1.829   6.329   2.177
 4125SOL     OW14381   0.495   7.008   1.988
 4125SOL    HW114382   0.419   6.980   2.041
 4125SOL    HW214383   0.488   6.954   1.909
 4126SOL     OW14384   1.679   6.872   2.513
 4126SOL    HW114385   1.777   6.877   2.517
 4126SOL    HW214386   1.649   6.960   2.542
 4127SOL     OW14387   1.402   6.171   1.925
 4127SOL    HW114388   1.351   6.148   2.005
 4127SOL    HW214389   1.483   6.120   1.940
 4128SOL     OW14390   0.528   5.833   2.183
 4128SOL    HW114391   0.575   5.793   2.108
 4128SOL    HW214392   0.497   5.915   2.140
 4129SOL     OW14393   1.732   6.819   3.429
 4129SOL    HW114394   1.819   6.779   3.439
 4129SOL    HW214395   1.753   6.912   3.445
 4130SOL     OW14396   1.056   6.974   3.228
 4130SOL    HW114397   0.975   6.932   3.261
 4130SOL    HW214398   1.124   6.908   3.254
 4131SOL     OW14399   1.615   7.193   3.495
 4131SOL    HW114400   1.619   7.237   3.409
 4131SOL    HW214401   1.696   7.140   3.496
 4132SOL     OW14402   1.132   6.819   2.969
 4132SOL    HW114403   1.045   6.817   3.010
 4132SOL    HW214404   1.113   6.856   2.881
 4133SOL     OW14405   1.599   6.683   2.941
 4133SOL    HW114406   1.608   6.745   3.016
 4133SOL    HW214407   1.546   6.737   2.879
 4134SOL     OW14408   0.972   5.620   3.272
 4134SOL    HW114409   0.979   5.641   3.178
 4134SOL    HW214410   0.917   5.691   3.307
 4135SOL     OW14411   0.991   6.698   3.599
 4135SOL    HW114412   0.897   6.714   3.616
 4135SOL    HW214413   0.989   6.622   3.538
 4136SOL     OW14414   0.707   6.648   2.216
 4136SOL    HW114415   0.690   6.625   2.309
 4136SOL    HW214416   0.788   6.597   2.198
 4137SOL     OW14417   0.381   6.402   3.104
 4137SOL    HW114418   0.449   6.404   3.174
 4137SOL    HW214419   0.355   6.308   3.107
 4138SOL     OW14420   1.271   5.968   3.121
 4138SOL    HW114421   1.289   6.044   3.180
 4138SOL    HW214422   1.176   5.979   3.101
 4139SOL     OW14423   0.017   7.163   3.247
 4139SOL    HW114424  11.095   7.235   3.186
 4139SOL    HW214425   0.113   7.174   3.256
 4140SOL     OW14426   0.363   6.683   2.347
 4140SOL    HW114427   0.379   6.756   2.287
 4140SOL    HW214428   0.344   6.609   2.287
 4141SOL     OW14429   0.557   6.115   2.712
 4141SOL    HW114430   0.583   6.176   2.640
 4141SOL    HW214431   0.609   6.148   2.787
 4142SOL     OW14432   1.220   6.923   2.260
 4142SOL    HW114433   1.262   7.006   2.288
 4142SOL    HW214434   1.129   6.936   2.293
 4143SOL     OW14435   1.285   7.061   3.032
 4143SOL    HW114436   1.348   7.058   3.106
 4143SOL    HW214437   1.233   6.980   3.044
 4144SOL     OW14438   1.576   6.198   2.326
 4144SOL    HW114439   1.524   6.236   2.399
 4144SOL    HW214440   1.599   6.277   2.276
 4145SOL     OW14441   0.307   7.122   3.185
 4145SOL    HW114442   0.303   7.070   3.102
 4145SOL    HW214443   0.400   7.141   3.194
 4146SOL     OW14444   0.417   6.324   3.472
 4146SOL    HW114445   0.480   6.366   3.410
 4146SOL    HW214446   0.447   6.233   3.469
 4147SOL     OW14447   1.629   6.373   3.550
 4147SOL    HW114448   1.538   6.406   3.548
 4147SOL    HW214449   1.669   6.422   3.475
 4148SOL     OW14450   0.994   5.685   3.619
 4148SOL    HW114451   1.051   5.759   3.596
 4148SOL    HW214452   1.042   5.612   3.576
 4149SOL     OW14453   0.484   5.606   3.621
 4149SOL    HW114454   0.463   5.566   3.535
 4149SOL    HW214455   0.420   5.681   3.624
 4150SOL     OW14456   0.603   6.474   2.906
 4150SOL    HW114457   0.626   6.567   2.916
 4150SOL    HW214458   0.529   6.462   2.968
 4151SOL     OW14459   1.353   6.439   2.889
 4151SOL    HW114460   1.265   6.405   2.864
 4151SOL    HW214461   1.405   6.358   2.896
 4152SOL     OW14462   1.228   6.099   2.127
 4152SOL    HW114463   1.231   6.025   2.190
 4152SOL    HW214464   1.171   6.161   2.174
 4153SOL     OW14465   0.310   5.787   3.105
 4153SOL    HW114466   0.260   5.809   3.186
 4153SOL    HW214467   0.305   5.689   3.106
 4154SOL     OW14468   0.082   6.908   3.129
 4154SOL    HW114469   0.113   6.855   3.203
 4154SOL    HW214470   0.044   6.987   3.171
 4155SOL     OW14471   0.728   6.234   2.902
 4155SOL    HW114472   0.808   6.219   2.850
 4155SOL    HW214473   0.703   6.327   2.885
 4156SOL     OW14474   1.771   6.539   3.711
 4156SOL    HW114475   1.724   6.471   3.659
 4156SOL    HW214476   1.705   6.558   3.779
 4157SOL     OW14477   0.289   5.634   2.467
 4157SOL    HW114478   0.273   5.727   2.490
 4157SOL    HW214479   0.315   5.598   2.555
 4158SOL     OW14480   1.593   5.961   2.219
 4158SOL    HW114481   1.614   5.896   2.287
 4158SOL    HW214482   1.583   6.045   2.271
 4159SOL     OW14483   1.069   6.351   2.846
 4159SOL    HW114484   1.037   6.369   2.937
 4159SOL    HW214485   1.033   6.261   2.831
 4160SOL     OW14486   0.969   7.150   3.561
 4160SOL    HW114487   0.950   7.191   3.476
 4160SOL    HW214488   1.011   7.066   3.536
 4161SOL     OW14489   1.853   7.077   3.462
 4161SOL    HW114490   1.883   7.102   3.373
 4161SOL    HW214491   1.929   7.103   3.517
 4162SOL     OW14492   0.354   6.496   3.673
 4162SOL    HW114493   0.439   6.514   3.717
 4162SOL    HW214494   0.376   6.419   3.617
 4163SOL     OW14495   1.512   5.853   1.994
 4163SOL    HW114496   1.437   5.801   2.027
 4163SOL    HW214497   1.548   5.892   2.077
 4164SOL     OW14498   1.302   6.423   1.894
 4164SOL    HW114499   1.340   6.334   1.900
 4164SOL    HW214500   1.326   6.449   1.802
 4165SOL     OW14501   1.060   6.941   2.718
 4165SOL    HW114502   1.064   6.864   2.656
 4165SOL    HW214503   1.126   7.002   2.683
 4166SOL     OW14504   0.280   6.419   2.823
 4166SOL    HW114505   0.368   6.427   2.784
 4166SOL    HW214506   0.287   6.334   2.870
 4167SOL     OW14507   0.322   6.139   2.853
 4167SOL    HW114508   0.283   6.049   2.849
 4167SOL    HW214509   0.399   6.129   2.793
 4168SOL     OW14510   1.155   5.965   3.552
 4168SOL    HW114511   1.108   6.011   3.624
 4168SOL    HW214512   1.242   6.010   3.553
 4169SOL     OW14513   1.206   5.790   3.358
 4169SOL    HW114514   1.182   5.858   3.423
 4169SOL    HW214515   1.219   5.841   3.277
 4170SOL     OW14516  11.088   6.915   2.055
 4170SOL    HW114517  10.992   6.919   2.053
 4170SOL    HW214518   0.001   6.826   2.093
 4171SOL     OW14519   0.142   7.381   2.821
 4171SOL    HW114520   0.102   7.320   2.756
 4171SOL    HW214521   0.223   7.408   2.772
 4172SOL     OW14522   0.490   7.173   2.774
 4172SOL    HW114523   0.567   7.232   2.788
 4172SOL    HW214524   0.528   7.103   2.718
 4173SOL     OW14525   0.964   6.377   3.101
 4173SOL    HW114526   1.023   6.336   3.168
 4173SOL    HW214527   0.883   6.327   3.118
 4174SOL     OW14528  11.095   6.186   2.955
 4174SOL    HW114529   0.069   6.156   2.903
 4174SOL    HW214530   0.016   6.152   3.043
 4175SOL     OW14531   0.212   6.115   3.603
 4175SOL    HW114532   0.273   6.069   3.543
 4175SOL    HW214533   0.178   6.186   3.545
 4176SOL     OW14534   1.381   6.496   3.513
 4176SOL    HW114535   1.406   6.590   3.509
 4176SOL    HW214536   1.368   6.475   3.419
 4177SOL     OW14537   0.798   6.149   2.264
 4177SOL    HW114538   0.810   6.091   2.186
 4177SOL    HW214539   0.718   6.198   2.239
 4178SOL     OW14540   1.640   6.206   3.068
 4178SOL    HW114541   1.625   6.137   3.134
 4178SOL    HW214542   1.724   6.176   3.028
 4179SOL     OW14543   0.268   7.129   3.582
 4179SOL    HW114544   0.232   7.198   3.640
 4179SOL    HW214545   0.247   7.047   3.631
 4180SOL     OW14546   0.692   6.094   3.135
 4180SOL    HW114547   0.647   6.009   3.124
 4180SOL    HW214548   0.690   6.135   3.046
 4181SOL     OW14549   0.887   7.261   3.311
 4181SOL    HW114550   0.970   7.234   3.270
 4181SOL    HW214551   0.898   7.358   3.318
 4182SOL     OW14552   0.456   6.062   2.049
 4182SOL    HW114553   0.526   6.130   2.049
 4182SOL    HW214554   0.377   6.117   2.054
 4183SOL     OW14555   0.176   6.710   3.342
 4183SOL    HW114556   0.172   6.651   3.419
 4183SOL    HW214557   0.171   6.649   3.266
 4184SOL     OW14558   1.327   6.625   3.098
 4184SOL    HW114559   1.343   6.564   3.023
 4184SOL    HW214560   1.264   6.687   3.059
 4185SOL     OW14561   1.318   6.449   2.162
 4185SOL    HW114562   1.241   6.418   2.210
 4185SOL    HW214563   1.290   6.445   2.069
 4186SOL     OW14564   1.758   7.333   2.996
 4186SOL    HW114565   1.832   7.351   2.935
 4186SOL    HW214566   1.750   7.235   2.984
 4187SOL     OW14567   1.244   7.321   2.982
 4187SOL    HW114568   1.332   7.336   2.945
 4187SOL    HW214569   1.246   7.224   2.998
 4188SOL     OW14570   0.078   6.880   2.864
 4188SOL    HW114571   0.081   6.895   2.962
 4188SOL    HW214572   0.004   6.820   2.855
 4189SOL     OW14573   0.667   7.224   3.605
 4189SOL    HW114574   0.611   7.304   3.600
 4189SOL    HW214575   0.748   7.253   3.563
 4190SOL     OW14576   1.676   5.723   2.359
 4190SOL    HW114577   1.744   5.701   2.296
 4190SOL    HW214578   1.674   5.644   2.416
 4191SOL     OW14579   1.349   7.160   2.335
 4191SOL    HW114580   1.420   7.176   2.269
 4191SOL    HW214581   1.324   7.251   2.360
 4192SOL     OW14582   0.173   7.376   3.699
 4192SOL    HW114583   0.115   7.314   3.748
 4192SOL    HW214584   0.220   7.420   3.772
 4193SOL     OW14585   1.250   6.501   2.519
 4193SOL    HW114586   1.330   6.454   2.547
 4193SOL    HW214587   1.287   6.582   2.482
 4194SOL     OW14588   0.814   6.852   3.295
 4194SOL    HW114589   0.783   6.894   3.377
 4194SOL    HW214590   0.732   6.848   3.243
 4195SOL     OW14591   0.673   7.204   2.022
 4195SOL    HW114592   0.680   7.219   1.926
 4195SOL    HW214593   0.619   7.122   2.021
 4196SOL     OW14594   1.623   7.311   3.250
 4196SOL    HW114595   1.669   7.323   3.165
 4196SOL    HW214596   1.612   7.403   3.282
 4197SOL     OW14597   1.859   5.759   2.825
 4197SOL    HW114598   1.874   5.666   2.799
 4197SOL    HW214599   1.768   5.778   2.792
 4198SOL     OW14600   0.265   5.883   2.567
 4198SOL    HW114601   0.172   5.911   2.555
 4198SOL    HW214602   0.275   5.889   2.663
 4199SOL     OW14603   1.172   7.223   1.891
 4199SOL    HW114604   1.191   7.129   1.902
 4199SOL    HW214605   1.118   7.225   1.809
 4200SOL     OW14606   0.791   6.584   3.237
 4200SOL    HW114607   0.845   6.556   3.162
 4200SOL    HW214608   0.824   6.673   3.259
 4201SOL     OW14609   0.918   6.509   2.141
 4201SOL    HW114610   0.990   6.542   2.082
 4201SOL    HW214611   0.953   6.425   2.173
 4202SOL     OW14612   1.549   7.217   1.896
 4202SOL    HW114613   1.453   7.220   1.887
 4202SOL    HW214614   1.577   7.217   1.802
 4203SOL     OW14615   0.389   6.870   3.326
 4203SOL    HW114616   0.340   6.950   3.305
 4203SOL    HW214617   0.319   6.802   3.320
 4204SOL     OW14618   1.600   6.892   3.126
 4204SOL    HW114619   1.648   6.867   3.206
 4204SOL    HW214620   1.542   6.963   3.159
 4205SOL     OW14621   1.040   6.713   2.578
 4205SOL    HW114622   0.971   6.655   2.615
 4205SOL    HW214623   1.100   6.649   2.538
 4206SOL     OW14624   1.039   5.814   2.841
 4206SOL    HW114625   1.026   5.768   2.756
 4206SOL    HW214626   1.036   5.739   2.905
 4207SOL     OW14627   0.593   7.034   2.344
 4207SOL    HW114628   0.663   7.017   2.279
 4207SOL    HW214629   0.526   7.079   2.292
 4208SOL     OW14630   1.717   5.958   3.239
 4208SOL    HW114631   1.784   6.029   3.232
 4208SOL    HW214632   1.758   5.888   3.184
 4209SOL     OW14633   0.243   6.937   2.119
 4209SOL    HW114634   0.147   6.948   2.111
 4209SOL    HW214635   0.253   6.951   2.216
 4210SOL     OW14636   0.129   6.610   3.600
 4210SOL    HW114637   0.061   6.578   3.660
 4210SOL    HW214638   0.210   6.564   3.633
 4211SOL     OW14639   0.091   5.915   1.906
 4211SOL    HW114640  11.097   5.926   1.901
 4211SOL    HW214641   0.123   5.995   1.861
 4212SOL     OW14642   1.459   6.442   3.252
 4212SOL    HW114643   1.419   6.511   3.196
 4212SOL    HW214644   1.553   6.464   3.247
 4213SOL     OW14645   0.067   5.744   2.170
 4213SOL    HW114646   0.063   5.822   2.114
 4213SOL    HW214647   0.148   5.700   2.142
 4214SOL     OW14648   1.209   6.942   1.977
 4214SOL    HW114649   1.126   6.893   1.982
 4214SOL    HW214650   1.234   6.947   2.071
 4215SOL     OW14651   0.596   6.407   3.276
 4215SOL    HW114652   0.653   6.485   3.261
 4215SOL    HW214653   0.666   6.342   3.293
 4216SOL     OW14654   1.506   7.346   2.825
 4216SOL    HW114655   1.545   7.389   2.748
 4216SOL    HW214656   1.583   7.329   2.881
 4217SOL     OW14657   0.734   6.123   3.566
 4217SOL    HW114658   0.779   6.192   3.617
 4217SOL    HW214659   0.754   6.042   3.616
 4218SOL     OW14660   1.461   6.768   3.484
 4218SOL    HW114661   1.455   6.768   3.582
 4218SOL    HW214662   1.556   6.787   3.470
 4219SOL     OW14663   0.391   7.316   3.420
 4219SOL    HW114664   0.304   7.362   3.407
 4219SOL    HW214665   0.359   7.237   3.468
 4220SOL     OW14666   1.713   6.467   3.101
 4220SOL    HW114667   1.680   6.378   3.076
 4220SOL    HW214668   1.668   6.526   3.038
 4221SOL     OW14669   1.206   5.915   2.337
 4221SOL    HW114670   1.272   5.842   2.334
 4221SOL    HW214671   1.240   5.968   2.412
 4222SOL     OW14672   0.607   6.325   2.511
 4222SOL    HW114673   0.636   6.417   2.508
 4222SOL    HW214674   0.536   6.323   2.446
 4223SOL     OW14675   1.770   5.972   3.501
 4223SOL    HW114676   1.743   5.976   3.408
 4223SOL    HW214677   1.697   5.920   3.539
 4224SOL     OW14678   1.733   6.532   3.363
 4224SOL    HW114679   1.741   6.628   3.358
 4224SOL    HW214680   1.756   6.503   3.273
 4225SOL     OW14681   0.849   6.950   1.893
 4225SOL    HW114682   0.833   6.961   1.988
 4225SOL    HW214683   0.882   7.036   1.863
 4226SOL     OW14684   0.658   7.393   2.800
 4226SOL    HW114685   0.640   7.488   2.793
 4226SOL    HW214686   0.751   7.388   2.774
 4227SOL     OW14687   0.872   6.542   2.711
 4227SOL    HW114688   0.920   6.469   2.754
 4227SOL    HW214689   0.852   6.601   2.786
 4228SOL     OW14690   1.086   6.584   1.950
 4228SOL    HW114691   1.059   6.638   1.873
 4228SOL    HW214692   1.155   6.527   1.910
 4229SOL     OW14693   1.869   7.144   2.711
 4229SOL    HW114694   1.781   7.136   2.673
 4229SOL    HW214695   1.874   7.068   2.771
 4230SOL     OW14696   0.219   6.899   3.708
 4230SOL    HW114697   0.174   6.816   3.687
 4230SOL    HW214698   0.215   6.900   3.805
 4231SOL     OW14699   0.084   6.820   2.527
 4231SOL    HW114700   0.078   6.755   2.598
 4231SOL    HW214701   0.156   6.785   2.474
 4232SOL     OW14702   0.657   6.993   3.467
 4232SOL    HW114703   0.586   6.936   3.503
 4232SOL    HW214704   0.655   7.069   3.529
 4233SOL     OW14705   1.814   5.752   3.089
 4233SOL    HW114706   1.820   5.656   3.094
 4233SOL    HW214707   1.830   5.766   2.994
 4234SOL     OW14708   0.415   6.018   2.376
 4234SOL    HW114709   0.458   5.949   2.323
 4234SOL    HW214710   0.375   5.969   2.450
 4235SOL     OW14711   1.720   7.078   2.951
 4235SOL    HW114712   1.637   7.058   2.905
 4235SOL    HW214713   1.715   7.014   3.024
 4236SOL     OW14714   0.317   6.127   3.135
 4236SOL    HW114715   0.383   6.082   3.189
 4236SOL    HW214716   0.334   6.092   3.046
 4237SOL     OW14717   0.831   7.189   2.531
 4237SOL    HW114718   0.811   7.252   2.461
 4237SOL    HW214719   0.752   7.133   2.536
 4238SOL     OW14720   1.439   5.832   2.968
 4238SOL    HW114721   1.463   5.751   3.013
 4238SOL    HW214722   1.382   5.878   3.035
 4239SOL     OW14723   1.027   5.598   3.003
 4239SOL    HW114724   0.966   5.524   2.990
 4239SOL    HW214725   1.114   5.552   3.004
 4240SOL     OW14726   0.794   6.923   2.171
 4240SOL    HW114727   0.758   6.833   2.180
 4240SOL    HW214728   0.865   6.923   2.236
 4241SOL     OW14729   1.330   5.618   2.052
 4241SOL    HW114730   1.327   5.564   1.972
 4241SOL    HW214731   1.241   5.597   2.089
 4242SOL     OW14732   1.291   6.060   2.547
 4242SOL    HW114733   1.226   6.133   2.554
 4242SOL    HW214734   1.279   6.015   2.633
 4243SOL     OW14735   1.604   5.792   2.736
 4243SOL    HW114736   1.532   5.803   2.800
 4243SOL    HW214737   1.589   5.866   2.675
 4244SOL     OW14738   0.046   6.664   2.157
 4244SOL    HW114739   0.143   6.663   2.157
 4244SOL    HW214740   0.027   6.571   2.178
 4245SOL     OW14741   0.886   7.235   2.205
 4245SOL    HW114742   0.812   7.218   2.143
 4245SOL    HW214743   0.858   7.316   2.251
 4246SOL     OW14744   0.249   6.240   3.847
 4246SOL    HW114745   0.168   6.215   3.894
 4246SOL    HW214746   0.241   6.194   3.761
 4247SOL     OW14747   0.231   5.881   4.735
 4247SOL    HW114748   0.263   5.856   4.824
 4247SOL    HW214749   0.172   5.807   4.715
 4248SOL     OW14750  11.101   5.964   4.357
 4248SOL    HW114751  11.024   5.998   4.405
 4248SOL    HW214752  11.069   5.877   4.323
 4249SOL     OW14753   0.575   6.886   4.909
 4249SOL    HW114754   0.487   6.872   4.870
 4249SOL    HW214755   0.568   6.977   4.943
 4250SOL     OW14756   1.528   7.123   4.429
 4250SOL    HW114757   1.494   7.094   4.516
 4250SOL    HW214758   1.452   7.113   4.367
 4251SOL     OW14759   1.129   6.271   4.425
 4251SOL    HW114760   1.167   6.359   4.407
 4251SOL    HW214761   1.094   6.284   4.514
 4252SOL     OW14762   1.771   6.197   3.963
 4252SOL    HW114763   1.755   6.195   3.867
 4252SOL    HW214764   1.723   6.118   3.993
 4253SOL     OW14765   0.752   6.755   4.755
 4253SOL    HW114766   0.688   6.796   4.816
 4253SOL    HW214767   0.786   6.836   4.711
 4254SOL     OW14768   0.900   6.340   5.529
 4254SOL    HW114769   0.863   6.402   5.592
 4254SOL    HW214770   0.923   6.396   5.452
 4255SOL     OW14771   0.683   6.601   4.373
 4255SOL    HW114772   0.742   6.585   4.448
 4255SOL    HW214773   0.609   6.650   4.414
 4256SOL     OW14774   0.706   6.744   5.519
 4256SOL    HW114775   0.751   6.827   5.546
 4256SOL    HW214776   0.619   6.777   5.490
 4257SOL     OW14777   0.323   7.012   4.790
 4257SOL    HW114778   0.246   6.979   4.740
 4257SOL    HW214779   0.369   7.067   4.724
 4258SOL     OW14780   1.473   7.084   5.146
 4258SOL    HW114781   1.466   7.136   5.064
 4258SOL    HW214782   1.380   7.082   5.175
 4259SOL     OW14783   0.444   5.969   5.253
 4259SOL    HW114784   0.529   5.925   5.235
 4259SOL    HW214785   0.379   5.908   5.216
 4260SOL     OW14786   1.616   6.034   4.462
 4260SOL    HW114787   1.548   6.064   4.399
 4260SOL    HW214788   1.603   6.096   4.534
 4261SOL     OW14789   0.212   7.265   4.189
 4261SOL    HW114790   0.220   7.342   4.247
 4261SOL    HW214791   0.275   7.286   4.120
 4262SOL     OW14792   1.123   6.930   5.382
 4262SOL    HW114793   1.162   6.934   5.470
 4262SOL    HW214794   1.078   6.844   5.387
 4263SOL     OW14795   0.223   6.992   4.232
 4263SOL    HW114796   0.219   7.090   4.229
 4263SOL    HW214797   0.160   6.973   4.302
 4264SOL     OW14798   0.259   6.704   4.625
 4264SOL    HW114799   0.243   6.621   4.673
 4264SOL    HW214800   0.196   6.766   4.665
 4265SOL     OW14801   0.613   7.392   5.132
 4265SOL    HW114802   0.536   7.364   5.185
 4265SOL    HW214803   0.629   7.483   5.164
 4266SOL     OW14804   0.587   6.576   3.836
 4266SOL    HW114805   0.636   6.634   3.775
 4266SOL    HW214806   0.626   6.601   3.922
 4267SOL     OW14807   1.604   5.701   5.219
 4267SOL    HW114808   1.598   5.782   5.166
 4267SOL    HW214809   1.617   5.738   5.308
 4268SOL     OW14810   0.117   6.220   4.270
 4268SOL    HW114811   0.098   6.125   4.280
 4268SOL    HW214812   0.103   6.254   4.361
 4269SOL     OW14813   1.849   7.320   4.069
 4269SOL    HW114814   1.924   7.303   4.130
 4269SOL    HW214815   1.863   7.414   4.048
 4270SOL     OW14816   0.054   7.183   3.842
 4270SOL    HW114817   0.027   7.093   3.864
 4270SOL    HW214818   0.038   7.231   3.924
 4271SOL     OW14819   1.680   6.490   4.371
 4271SOL    HW114820   1.764   6.460   4.334
 4271SOL    HW214821   1.645   6.545   4.299
 4272SOL     OW14822   1.645   6.706   4.168
 4272SOL    HW114823   1.735   6.704   4.132
 4272SOL    HW214824   1.653   6.773   4.239
 4273SOL     OW14825   0.121   6.319   5.310
 4273SOL    HW114826   0.203   6.366   5.332
 4273SOL    HW214827   0.059   6.392   5.291
 4274SOL     OW14828   0.618   6.980   4.482
 4274SOL    HW114829   0.581   6.892   4.503
 4274SOL    HW214830   0.598   6.984   4.387
 4275SOL     OW14831   1.288   6.814   5.144
 4275SOL    HW114832   1.316   6.742   5.083
 4275SOL    HW214833   1.342   6.795   5.224
 4276SOL     OW14834   0.823   5.586   4.227
 4276SOL    HW114835   0.856   5.677   4.216
 4276SOL    HW214836   0.727   5.600   4.222
 4277SOL     OW14837   0.175   6.578   4.969
 4277SOL    HW114838   0.260   6.532   4.953
 4277SOL    HW214839   0.110   6.514   4.936
 4278SOL     OW14840   1.545   6.557   3.911
 4278SOL    HW114841   1.466   6.511   3.945
 4278SOL    HW214842   1.582   6.595   3.992
 4279SOL     OW14843   1.215   7.381   5.345
 4279SOL    HW114844   1.191   7.442   5.275
 4279SOL    HW214845   1.210   7.296   5.298
 4280SOL     OW14846   0.324   5.815   5.538
 4280SOL    HW114847   0.383   5.885   5.569
 4280SOL    HW214848   0.238   5.843   5.576
 4281SOL     OW14849   1.470   7.011   4.677
 4281SOL    HW114850   1.412   7.027   4.753
 4281SOL    HW214851   1.444   6.920   4.651
 4282SOL     OW14852   1.659   7.326   4.318
 4282SOL    HW114853   1.638   7.292   4.230
 4282SOL    HW214854   1.620   7.257   4.375
 4283SOL     OW14855   0.593   6.299   3.978
 4283SOL    HW114856   0.601   6.388   3.940
 4283SOL    HW214857   0.525   6.310   4.047
 4284SOL     OW14858   1.275   5.918   4.631
 4284SOL    HW114859   1.186   5.889   4.657
 4284SOL    HW214860   1.331   5.878   4.701
 4285SOL     OW14861   1.570   7.233   4.028
 4285SOL    HW114862   1.664   7.253   4.035
 4285SOL    HW214863   1.563   7.221   3.931
 4286SOL     OW14864   0.784   6.217   5.192
 4286SOL    HW114865   0.770   6.178   5.281
 4286SOL    HW214866   0.752   6.146   5.133
 4287SOL     OW14867   1.398   6.062   5.401
 4287SOL    HW114868   1.404   6.117   5.480
 4287SOL    HW214869   1.460   5.988   5.421
 4288SOL     OW14870   0.962   6.475   5.301
 4288SOL    HW114871   0.998   6.391   5.264
 4288SOL    HW214872   0.906   6.504   5.227
 4289SOL     OW14873   0.986   5.985   4.949
 4289SOL    HW114874   0.895   6.005   4.974
 4289SOL    HW214875   0.975   5.919   4.879
 4290SOL     OW14876   1.044   6.262   4.130
 4290SOL    HW114877   1.063   6.286   4.222
 4290SOL    HW214878   0.958   6.215   4.138
 4291SOL     OW14879   0.088   6.375   4.492
 4291SOL    HW114880   0.171   6.366   4.543
 4291SOL    HW214881   0.050   6.453   4.537
 4292SOL     OW14882   0.138   7.425   5.294
 4292SOL    HW114883   0.136   7.397   5.388
 4292SOL    HW214884   0.045   7.420   5.268
 4293SOL     OW14885   0.874   5.955   3.941
 4293SOL    HW114886   0.928   6.003   3.877
 4293SOL    HW214887   0.838   5.887   3.882
 4294SOL     OW14888   1.719   6.169   5.565
 4294SOL    HW114889   1.679   6.245   5.517
 4294SOL    HW214890   1.746   6.113   5.491
 4295SOL     OW14891   1.360   6.732   4.287
 4295SOL    HW114892   1.440   6.728   4.232
 4295SOL    HW214893   1.306   6.796   4.237
 4296SOL     OW14894   0.589   5.793   4.619
 4296SOL    HW114895   0.585   5.798   4.717
 4296SOL    HW214896   0.575   5.885   4.594
 4297SOL     OW14897   0.978   7.029   4.224
 4297SOL    HW114898   0.947   7.092   4.156
 4297SOL    HW214899   0.966   7.081   4.305
 4298SOL     OW14900   0.374   7.402   4.571
 4298SOL    HW114901   0.387   7.307   4.585
 4298SOL    HW214902   0.464   7.434   4.586
 4299SOL     OW14903   1.802   6.641   4.611
 4299SOL    HW114904   1.751   6.635   4.529
 4299SOL    HW214905   1.733   6.631   4.679
 4300SOL     OW14906   1.218   7.138   5.218
 4300SOL    HW114907   1.190   7.074   5.287
 4300SOL    HW214908   1.164   7.106   5.143
 4301SOL     OW14909   0.322   6.537   3.980
 4301SOL    HW114910   0.392   6.560   3.918
 4301SOL    HW214911   0.294   6.450   3.947
 4302SOL     OW14912   1.472   6.344   4.448
 4302SOL    HW114913   1.475   6.315   4.541
 4302SOL    HW214914   1.556   6.393   4.438
 4303SOL     OW14915   0.466   6.854   5.449
 4303SOL    HW114916   0.433   6.862   5.357
 4303SOL    HW214917   0.384   6.867   5.499
 4304SOL     OW14918   1.112   7.352   3.973
 4304SOL    HW114919   1.042   7.302   4.018
 4304SOL    HW214920   1.118   7.307   3.886
 4305SOL     OW14921   0.177   5.861   5.219
 4305SOL    HW114922   0.098   5.911   5.249
 4305SOL    HW214923   0.186   5.796   5.289
 4306SOL     OW14924   1.614   6.946   3.819
 4306SOL    HW114925   1.578   7.031   3.789
 4306SOL    HW214926   1.555   6.880   3.779
 4307SOL     OW14927   0.450   7.312   4.046
 4307SOL    HW114928   0.499   7.361   4.115
 4307SOL    HW214929   0.521   7.283   3.986
 4308SOL     OW14930   1.396   5.701   4.176
 4308SOL    HW114931   1.387   5.661   4.087
 4308SOL    HW214932   1.492   5.710   4.186
 4309SOL     OW14933   0.254   7.379   4.955
 4309SOL    HW114934   0.298   7.302   4.994
 4309SOL    HW214935   0.232   7.348   4.866
 4310SOL     OW14936   0.951   7.285   4.616
 4310SOL    HW114937   1.036   7.239   4.624
 4310SOL    HW214938   0.909   7.236   4.543
 4311SOL     OW14939   0.418   6.283   4.184
 4311SOL    HW114940   0.434   6.188   4.201
 4311SOL    HW214941   0.326   6.290   4.214
 4312SOL     OW14942   1.550   5.842   5.454
 4312SOL    HW114943   1.543   5.852   5.552
 4312SOL    HW214944   1.495   5.763   5.442
 4313SOL     OW14945   0.608   5.703   3.835
 4313SOL    HW114946   0.703   5.700   3.816
 4313SOL    HW214947   0.571   5.658   3.757
 4314SOL     OW14948   0.755   5.846   5.468
 4314SOL    HW114949   0.834   5.790   5.477
 4314SOL    HW214950   0.705   5.826   5.548
 4315SOL     OW14951   0.874   7.126   4.917
 4315SOL    HW114952   0.864   7.101   4.823
 4315SOL    HW214953   0.930   7.055   4.953
 4316SOL     OW14954   1.328   6.183   5.158
 4316SOL    HW114955   1.366   6.148   5.241
 4316SOL    HW214956   1.386   6.259   5.139
 4317SOL     OW14957   0.839   6.991   4.666
 4317SOL    HW114958   0.926   6.973   4.625
 4317SOL    HW214959   0.782   7.001   4.588
 4318SOL     OW14960   0.948   6.113   4.636
 4318SOL    HW114961   0.918   6.097   4.544
 4318SOL    HW214962   0.972   6.023   4.663
 4319SOL     OW14963   0.562   5.637   4.228
 4319SOL    HW114964   0.478   5.636   4.276
 4319SOL    HW214965   0.551   5.719   4.173
 4320SOL     OW14966   1.444   6.749   3.744
 4320SOL    HW114967   1.471   6.677   3.804
 4320SOL    HW214968   1.363   6.783   3.785
 4321SOL     OW14969   0.293   5.624   3.927
 4321SOL    HW114970   0.358   5.683   3.888
 4321SOL    HW214971   0.350   5.564   3.978
 4322SOL     OW14972   0.932   5.841   4.212
 4322SOL    HW114973   0.913   5.884   4.127
 4322SOL    HW214974   1.028   5.855   4.219
 4323SOL     OW14975   1.072   6.265   5.181
 4323SOL    HW114976   1.027   6.180   5.191
 4323SOL    HW214977   1.167   6.241   5.177
 4324SOL     OW14978   1.228   7.177   4.523
 4324SOL    HW114979   1.225   7.228   4.440
 4324SOL    HW214980   1.312   7.206   4.562
 4325SOL     OW14981   0.459   6.746   4.455
 4325SOL    HW114982   0.383   6.732   4.516
 4325SOL    HW214983   0.421   6.719   4.369
 4326SOL     OW14984   1.257   7.395   4.325
 4326SOL    HW114985   1.308   7.464   4.278
 4326SOL    HW214986   1.211   7.446   4.394
 4327SOL     OW14987   1.061   6.120   3.750
 4327SOL    HW114988   1.010   6.202   3.734
 4327SOL    HW214989   1.131   6.145   3.810
 4328SOL     OW14990   0.063   6.162   5.105
 4328SOL    HW114991   0.154   6.149   5.074
 4328SOL    HW214992   0.076   6.226   5.178
 4329SOL     OW14993   0.581   5.805   4.888
 4329SOL    HW114994   0.626   5.730   4.930
 4329SOL    HW214995   0.490   5.798   4.923
 4330SOL     OW14996   0.879   6.044   4.391
 4330SOL    HW114997   0.833   6.095   4.322
 4330SOL    HW214998   0.897   5.960   4.344
 4331SOL     OW14999   1.009   5.657   4.489
 4331SOL    HW115000   0.963   5.640   4.406
 4331SOL    HW215001   0.986   5.579   4.542
 4332SOL     OW15002   1.414   6.761   4.605
 4332SOL    HW115003   1.349   6.691   4.622
 4332SOL    HW215004   1.420   6.757   4.508
 4333SOL     OW15005   1.467   6.180   4.709
 4333SOL    HW115006   1.421   6.095   4.711
 4333SOL    HW215007   1.530   6.174   4.782
 4334SOL     OW15008   1.841   6.410   4.122
 4334SOL    HW115009   1.896   6.354   4.180
 4334SOL    HW215010   1.817   6.345   4.054
 4335SOL     OW15011   0.494   6.997   3.892
 4335SOL    HW115012   0.408   6.979   3.934
 4335SOL    HW215013   0.481   6.963   3.803
 4336SOL     OW15014   1.671   6.879   4.380
 4336SOL    HW115015   1.768   6.886   4.379
 4336SOL    HW215016   1.640   6.969   4.401
 4337SOL     OW15017   1.416   6.177   3.792
 4337SOL    HW115018   1.361   6.151   3.869
 4337SOL    HW215019   1.496   6.126   3.808
 4338SOL     OW15020   0.523   5.834   4.049
 4338SOL    HW115021   0.564   5.786   3.974
 4338SOL    HW215022   0.499   5.917   4.004
 4339SOL     OW15023   1.739   6.819   5.308
 4339SOL    HW115024   1.823   6.771   5.303
 4339SOL    HW215025   1.771   6.910   5.318
 4340SOL     OW15026   1.065   6.958   5.077
 4340SOL    HW115027   0.986   6.916   5.113
 4340SOL    HW215028   1.136   6.902   5.114
 4341SOL     OW15029   1.133   6.825   4.825
 4341SOL    HW115030   1.051   6.827   4.875
 4341SOL    HW215031   1.106   6.857   4.737
 4342SOL     OW15032   1.596   6.680   4.797
 4342SOL    HW115033   1.598   6.739   4.874
 4342SOL    HW215034   1.536   6.729   4.737
 4343SOL     OW15035   0.932   5.680   5.129
 4343SOL    HW115036   0.961   5.665   5.038
 4343SOL    HW215037   1.008   5.729   5.167
 4344SOL     OW15038   0.991   6.700   5.458
 4344SOL    HW115039   0.897   6.713   5.479
 4344SOL    HW215040   0.989   6.623   5.399
 4345SOL     OW15041   0.710   6.643   4.085
 4345SOL    HW115042   0.694   6.621   4.179
 4345SOL    HW215043   0.791   6.590   4.066
 4346SOL     OW15044   0.390   6.408   4.974
 4346SOL    HW115045   0.458   6.415   5.044
 4346SOL    HW215046   0.367   6.313   4.978
 4347SOL     OW15047   1.283   5.977   4.986
 4347SOL    HW115048   1.299   6.052   5.046
 4347SOL    HW215049   1.191   5.991   4.959
 4348SOL     OW15050   0.034   7.163   5.103
 4348SOL    HW115051   0.011   7.235   5.043
 4348SOL    HW215052   0.131   7.168   5.105
 4349SOL     OW15053   0.364   6.678   4.213
 4349SOL    HW115054   0.383   6.751   4.152
 4349SOL    HW215055   0.345   6.604   4.152
 4350SOL     OW15056   0.556   6.126   4.577
 4350SOL    HW115057   0.582   6.189   4.507
 4350SOL    HW215058   0.611   6.153   4.652
 4351SOL     OW15059   1.214   6.926   4.113
 4351SOL    HW115060   1.261   7.004   4.146
 4351SOL    HW215061   1.125   6.942   4.149
 4352SOL     OW15062   1.306   7.043   4.898
 4352SOL    HW115063   1.346   6.992   4.969
 4352SOL    HW215064   1.229   6.987   4.878
 4353SOL     OW15065   1.580   6.190   4.194
 4353SOL    HW115066   1.534   6.247   4.258
 4353SOL    HW215067   1.610   6.253   4.127
 4354SOL     OW15068   0.323   7.110   5.035
 4354SOL    HW115069   0.312   7.060   4.951
 4354SOL    HW215070   0.419   7.128   5.030
 4355SOL     OW15071   0.423   6.326   5.339
 4355SOL    HW115072   0.487   6.364   5.276
 4355SOL    HW215073   0.448   6.233   5.336
 4356SOL     OW15074   1.616   6.355   5.409
 4356SOL    HW115075   1.527   6.394   5.409
 4356SOL    HW215076   1.654   6.395   5.328
 4357SOL     OW15077   0.986   5.695   5.475
 4357SOL    HW115078   1.051   5.765   5.465
 4357SOL    HW215079   1.035   5.620   5.438
 4358SOL     OW15080   0.491   5.609   5.480
 4358SOL    HW115081   0.454   5.549   5.413
 4358SOL    HW215082   0.423   5.679   5.483
 4359SOL     OW15083   0.597   6.482   4.762
 4359SOL    HW115084   0.622   6.575   4.764
 4359SOL    HW215085   0.539   6.473   4.839
 4360SOL     OW15086   1.350   6.444   4.753
 4360SOL    HW115087   1.265   6.409   4.724
 4360SOL    HW215088   1.404   6.363   4.752
 4361SOL     OW15089   1.230   6.102   3.988
 4361SOL    HW115090   1.232   6.030   4.052
 4361SOL    HW215091   1.163   6.161   4.028
 4362SOL     OW15092   0.311   5.779   4.972
 4362SOL    HW115093   0.243   5.807   5.036
 4362SOL    HW215094   0.297   5.682   4.970
 4363SOL     OW15095   0.072   6.892   4.999
 4363SOL    HW115096   0.112   6.837   5.068
 4363SOL    HW215097   0.057   6.977   5.043
 4364SOL     OW15098   0.724   6.225   4.772
 4364SOL    HW115099   0.807   6.205   4.725
 4364SOL    HW215100   0.704   6.318   4.750
 4365SOL     OW15101   1.757   6.538   5.559
 4365SOL    HW115102   1.712   6.472   5.504
 4365SOL    HW215103   1.700   6.540   5.637
 4366SOL     OW15104   0.286   5.634   4.324
 4366SOL    HW115105   0.276   5.728   4.347
 4366SOL    HW215106   0.311   5.597   4.411
 4367SOL     OW15107   1.593   5.957   4.068
 4367SOL    HW115108   1.625   5.888   4.128
 4367SOL    HW215109   1.586   6.035   4.128
 4368SOL     OW15110   1.073   6.342   4.698
 4368SOL    HW115111   1.037   6.362   4.786
 4368SOL    HW215112   1.043   6.250   4.687
 4369SOL     OW15113   0.988   7.163   5.427
 4369SOL    HW115114   0.963   7.213   5.346
 4369SOL    HW215115   0.999   7.073   5.391
 4370SOL     OW15116   1.841   7.098   5.328
 4370SOL    HW115117   1.883   7.117   5.241
 4370SOL    HW215118   1.918   7.113   5.387
 4371SOL     OW15119   0.348   6.479   5.541
 4371SOL    HW115120   0.432   6.495   5.587
 4371SOL    HW215121   0.374   6.411   5.476
 4372SOL     OW15122   1.503   5.838   3.849
 4372SOL    HW115123   1.429   5.785   3.882
 4372SOL    HW215124   1.540   5.877   3.931
 4373SOL     OW15125   1.300   6.421   3.753
 4373SOL    HW115126   1.348   6.337   3.761
 4373SOL    HW215127   1.322   6.447   3.661
 4374SOL     OW15128   1.078   6.947   4.574
 4374SOL    HW115129   1.091   6.871   4.514
 4374SOL    HW215130   1.138   7.015   4.539
 4375SOL     OW15131   0.282   6.415   4.689
 4375SOL    HW115132   0.371   6.438   4.659
 4375SOL    HW215133   0.297   6.331   4.735
 4376SOL     OW15134   0.333   6.134   4.721
 4376SOL    HW115135   0.294   6.046   4.708
 4376SOL    HW215136   0.409   6.132   4.659
 4377SOL     OW15137   1.155   5.956   5.414
 4377SOL    HW115138   1.112   6.008   5.486
 4377SOL    HW215139   1.244   5.996   5.413
 4378SOL     OW15140   1.161   5.792   5.202
 4378SOL    HW115141   1.163   5.854   5.278
 4378SOL    HW215142   1.215   5.839   5.137
 4379SOL     OW15143  11.085   6.921   3.915
 4379SOL    HW115144  10.994   6.929   3.884
 4379SOL    HW215145  11.085   6.834   3.959
 4380SOL     OW15146   0.136   7.386   4.687
 4380SOL    HW115147   0.094   7.327   4.620
 4380SOL    HW215148   0.221   7.405   4.643
 4381SOL     OW15149   0.490   7.166   4.638
 4381SOL    HW115150   0.562   7.231   4.648
 4381SOL    HW215151   0.534   7.096   4.585
 4382SOL     OW15152   0.957   6.357   4.951
 4382SOL    HW115153   1.008   6.325   5.029
 4382SOL    HW215154   0.868   6.330   4.975
 4383SOL     OW15155  11.087   6.178   4.819
 4383SOL    HW115156   0.057   6.134   4.772
 4383SOL    HW215157   0.009   6.159   4.912
 4384SOL     OW15158   0.209   6.109   5.466
 4384SOL    HW115159   0.260   6.056   5.403
 4384SOL    HW215160   0.175   6.180   5.409
 4385SOL     OW15161   1.375   6.496   5.372
 4385SOL    HW115162   1.401   6.589   5.367
 4385SOL    HW215163   1.366   6.471   5.278
 4386SOL     OW15164   0.796   6.144   4.129
 4386SOL    HW115165   0.811   6.082   4.056
 4386SOL    HW215166   0.717   6.191   4.100
 4387SOL     OW15167   1.642   6.206   4.929
 4387SOL    HW115168   1.622   6.142   4.998
 4387SOL    HW215169   1.724   6.169   4.890
 4388SOL     OW15170   0.258   7.125   5.442
 4388SOL    HW115171   0.229   7.194   5.503
 4388SOL    HW215172   0.246   7.044   5.495
 4389SOL     OW15173   0.691   6.060   4.991
 4389SOL    HW115174   0.648   5.980   4.956
 4389SOL    HW215175   0.690   6.120   4.914
 4390SOL     OW15176   0.908   7.283   5.200
 4390SOL    HW115177   0.893   7.246   5.113
 4390SOL    HW215178   0.904   7.379   5.183
 4391SOL     OW15179   0.450   6.060   3.909
 4391SOL    HW115180   0.520   6.127   3.909
 4391SOL    HW215181   0.371   6.117   3.911
 4392SOL     OW15182   0.170   6.711   5.206
 4392SOL    HW115183   0.174   6.653   5.284
 4392SOL    HW215184   0.173   6.648   5.131
 4393SOL     OW15185   1.323   6.638   4.946
 4393SOL    HW115186   1.339   6.573   4.875
 4393SOL    HW215187   1.256   6.696   4.906
 4394SOL     OW15188   1.317   6.442   4.019
 4394SOL    HW115189   1.236   6.409   4.060
 4394SOL    HW215190   1.296   6.439   3.923
 4395SOL     OW15191   1.755   7.338   4.855
 4395SOL    HW115192   1.827   7.365   4.796
 4395SOL    HW215193   1.750   7.242   4.837
 4396SOL     OW15194   1.246   7.313   4.843
 4396SOL    HW115195   1.332   7.336   4.806
 4396SOL    HW215196   1.253   7.216   4.853
 4397SOL     OW15197   0.087   6.887   4.727
 4397SOL    HW115198   0.090   6.896   4.824
 4397SOL    HW215199   0.015   6.824   4.716
 4398SOL     OW15200   0.670   7.232   5.465
 4398SOL    HW115201   0.613   7.310   5.452
 4398SOL    HW215202   0.743   7.251   5.405
 4399SOL     OW15203   1.681   5.729   4.220
 4399SOL    HW115204   1.755   5.717   4.159
 4399SOL    HW215205   1.683   5.647   4.274
 4400SOL     OW15206   1.351   7.164   4.200
 4400SOL    HW115207   1.413   7.182   4.126
 4400SOL    HW215208   1.319   7.253   4.223
 4401SOL     OW15209   0.170   7.370   5.564
 4401SOL    HW115210   0.113   7.307   5.612
 4401SOL    HW215211   0.216   7.413   5.638
 4402SOL     OW15212   1.253   6.506   4.394
 4402SOL    HW115213   1.334   6.453   4.408
 4402SOL    HW215214   1.288   6.583   4.346
 4403SOL     OW15215   0.809   6.841   5.160
 4403SOL    HW115216   0.782   6.887   5.242
 4403SOL    HW215217   0.732   6.858   5.104
 4404SOL     OW15218   0.674   7.201   3.879
 4404SOL    HW115219   0.677   7.210   3.782
 4404SOL    HW215220   0.620   7.120   3.890
 4405SOL     OW15221   1.656   7.318   5.142
 4405SOL    HW115222   1.688   7.325   5.050
 4405SOL    HW215223   1.630   7.410   5.160
 4406SOL     OW15224   1.839   5.753   4.703
 4406SOL    HW115225   1.865   5.668   4.663
 4406SOL    HW215226   1.753   5.774   4.660
 4407SOL     OW15227   0.266   5.878   4.425
 4407SOL    HW115228   0.175   5.909   4.410
 4407SOL    HW215229   0.278   5.891   4.520
 4408SOL     OW15230   1.166   7.213   3.747
 4408SOL    HW115231   1.185   7.120   3.762
 4408SOL    HW215232   1.108   7.213   3.669
 4409SOL     OW15233   0.806   6.578   5.105
 4409SOL    HW115234   0.840   6.585   5.016
 4409SOL    HW215235   0.815   6.669   5.140
 4410SOL     OW15236   0.926   6.507   4.007
 4410SOL    HW115237   1.000   6.538   3.951
 4410SOL    HW215238   0.955   6.419   4.034
 4411SOL     OW15239   1.558   7.208   3.753
 4411SOL    HW115240   1.463   7.227   3.747
 4411SOL    HW215241   1.584   7.207   3.658
 4412SOL     OW15242   0.385   6.867   5.197
 4412SOL    HW115243   0.357   6.945   5.148
 4412SOL    HW215244   0.310   6.806   5.187
 4413SOL     OW15245   1.599   6.887   4.987
 4413SOL    HW115246   1.691   6.874   5.016
 4413SOL    HW215247   1.556   6.926   5.065
 4414SOL     OW15248   1.048   6.700   4.450
 4414SOL    HW115249   0.972   6.650   4.484
 4414SOL    HW215250   1.110   6.628   4.428
 4415SOL     OW15251   1.033   5.815   4.711
 4415SOL    HW115252   1.017   5.774   4.623
 4415SOL    HW215253   1.034   5.736   4.769
 4416SOL     OW15254   0.590   7.031   4.203
 4416SOL    HW115255   0.660   7.005   4.141
 4416SOL    HW215256   0.526   7.075   4.146
 4417SOL     OW15257   1.713   5.960   5.101
 4417SOL    HW115258   1.778   6.032   5.095
 4417SOL    HW215259   1.758   5.889   5.050
 4418SOL     OW15260   0.241   6.940   3.977
 4418SOL    HW115261   0.145   6.951   3.965
 4418SOL    HW215262   0.249   6.954   4.074
 4419SOL     OW15263   0.128   6.597   5.466
 4419SOL    HW115264   0.061   6.551   5.518
 4419SOL    HW215265   0.211   6.555   5.497
 4420SOL     OW15266   0.692   5.783   5.210
 4420SOL    HW115267   0.780   5.746   5.190
 4420SOL    HW215268   0.704   5.817   5.301
 4421SOL     OW15269   0.091   5.922   3.774
 4421SOL    HW115270   0.001   5.919   3.741
 4421SOL    HW215271   0.127   5.996   3.722
 4422SOL     OW15272   1.447   6.439   5.111
 4422SOL    HW115273   1.408   6.502   5.048
 4422SOL    HW215274   1.540   6.464   5.108
 4423SOL     OW15275   0.069   5.751   4.034
 4423SOL    HW115276   0.067   5.824   3.970
 4423SOL    HW215277   0.153   5.707   4.011
 4424SOL     OW15278   1.213   6.929   3.837
 4424SOL    HW115279   1.132   6.878   3.848
 4424SOL    HW215280   1.238   6.943   3.931
 4425SOL     OW15281   0.601   6.409   5.147
 4425SOL    HW115282   0.662   6.484   5.137
 4425SOL    HW215283   0.667   6.338   5.162
 4426SOL     OW15284   1.514   7.341   4.687
 4426SOL    HW115285   1.541   7.392   4.610
 4426SOL    HW215286   1.595   7.341   4.740
 4427SOL     OW15287   0.727   6.131   5.440
 4427SOL    HW115288   0.773   6.194   5.497
 4427SOL    HW215289   0.739   6.046   5.485
 4428SOL     OW15290   1.469   6.772   5.352
 4428SOL    HW115291   1.457   6.769   5.449
 4428SOL    HW215292   1.566   6.783   5.344
 4429SOL     OW15293   0.389   7.317   5.280
 4429SOL    HW115294   0.305   7.366   5.268
 4429SOL    HW215295   0.355   7.232   5.315
 4430SOL     OW15296   1.700   6.471   4.947
 4430SOL    HW115297   1.676   6.379   4.922
 4430SOL    HW215298   1.654   6.526   4.881
 4431SOL     OW15299   1.210   5.916   4.198
 4431SOL    HW115300   1.275   5.845   4.191
 4431SOL    HW215301   1.245   5.969   4.273
 4432SOL     OW15302   0.612   6.326   4.377
 4432SOL    HW115303   0.643   6.417   4.372
 4432SOL    HW215304   0.542   6.324   4.309
 4433SOL     OW15305   1.773   5.965   5.365
 4433SOL    HW115306   1.749   5.972   5.271
 4433SOL    HW215307   1.696   5.916   5.400
 4434SOL     OW15308   1.723   6.515   5.212
 4434SOL    HW115309   1.742   6.610   5.213
 4434SOL    HW215310   1.739   6.492   5.118
 4435SOL     OW15311   0.846   6.959   3.757
 4435SOL    HW115312   0.843   6.971   3.854
 4435SOL    HW215313   0.890   7.039   3.725
 4436SOL     OW15314   0.655   7.393   4.633
 4436SOL    HW115315   0.652   7.490   4.626
 4436SOL    HW215316   0.749   7.373   4.644
 4437SOL     OW15317   0.869   6.535   4.575
 4437SOL    HW115318   0.919   6.462   4.614
 4437SOL    HW215319   0.848   6.590   4.652
 4438SOL     OW15320   1.104   6.590   3.821
 4438SOL    HW115321   1.068   6.635   3.742
 4438SOL    HW215322   1.170   6.529   3.782
 4439SOL     OW15323   1.870   7.150   4.555
 4439SOL    HW115324   1.780   7.151   4.521
 4439SOL    HW215325   1.869   7.077   4.619
 4440SOL     OW15326   0.220   6.892   5.569
 4440SOL    HW115327   0.172   6.811   5.545
 4440SOL    HW215328   0.215   6.890   5.666
 4441SOL     OW15329   0.075   6.832   4.393
 4441SOL    HW115330   0.094   6.770   4.463
 4441SOL    HW215331   0.137   6.804   4.325
 4442SOL     OW15332   0.671   6.990   5.345
 4442SOL    HW115333   0.593   6.936   5.371
 4442SOL    HW215334   0.655   7.072   5.395
 4443SOL     OW15335   1.828   5.749   4.966
 4443SOL    HW115336   1.844   5.654   4.974
 4443SOL    HW215337   1.830   5.760   4.869
 4444SOL     OW15338   0.423   6.014   4.246
 4444SOL    HW115339   0.468   5.949   4.192
 4444SOL    HW215340   0.387   5.962   4.320
 4445SOL     OW15341   1.717   7.079   4.805
 4445SOL    HW115342   1.638   7.050   4.756
 4445SOL    HW215343   1.716   7.018   4.880
 4446SOL     OW15344   0.321   6.135   4.998
 4446SOL    HW115345   0.374   6.069   5.044
 4446SOL    HW215346   0.333   6.110   4.904
 4447SOL     OW15347   0.820   7.191   4.395
 4447SOL    HW115348   0.797   7.265   4.336
 4447SOL    HW215349   0.740   7.137   4.397
 4448SOL     OW15350   1.432   5.825   4.822
 4448SOL    HW115351   1.463   5.745   4.868
 4448SOL    HW215352   1.386   5.874   4.893
 4449SOL     OW15353   1.024   5.593   4.877
 4449SOL    HW115354   0.966   5.518   4.855
 4449SOL    HW215355   1.113   5.549   4.873
 4450SOL     OW15356   0.796   6.919   4.041
 4450SOL    HW115357   0.766   6.827   4.045
 4450SOL    HW215358   0.859   6.922   4.114
 4451SOL     OW15359   0.589   7.147   4.999
 4451SOL    HW115360   0.595   7.234   5.041
 4451SOL    HW215361   0.681   7.135   4.973
 4452SOL     OW15362   1.319   5.616   3.911
 4452SOL    HW115363   1.327   5.565   3.830
 4452SOL    HW215364   1.229   5.589   3.941
 4453SOL     OW15365   1.301   6.063   4.405
 4453SOL    HW115366   1.238   6.137   4.403
 4453SOL    HW215367   1.281   6.020   4.490
 4454SOL     OW15368   1.605   5.794   4.594
 4454SOL    HW115369   1.532   5.806   4.656
 4454SOL    HW215370   1.598   5.872   4.537
 4455SOL     OW15371   0.030   6.669   4.028
 4455SOL    HW115372   0.124   6.676   4.010
 4455SOL    HW215373   0.023   6.573   4.048
 4456SOL     OW15374   0.890   7.229   4.050
 4456SOL    HW115375   0.816   7.211   3.990
 4456SOL    HW215376   0.859   7.307   4.100
 4457SOL     OW15377   0.242   6.232   5.716
 4457SOL    HW115378   0.158   6.209   5.757
 4457SOL    HW215379   0.236   6.194   5.626
 4458SOL     OW15380   0.230   5.881   6.595
 4458SOL    HW115381   0.260   5.859   6.686
 4458SOL    HW215382   0.162   5.813   6.583
 4459SOL     OW15383  11.095   5.962   6.227
 4459SOL    HW115384  11.014   5.997   6.266
 4459SOL    HW215385  11.068   5.874   6.195
 4460SOL     OW15386   0.571   6.874   6.777
 4460SOL    HW115387   0.483   6.868   6.737
 4460SOL    HW215388   0.573   6.966   6.809
 4461SOL     OW15389   1.537   7.118   6.300
 4461SOL    HW115390   1.504   7.089   6.388
 4461SOL    HW215391   1.467   7.091   6.239
 4462SOL     OW15392   1.126   6.269   6.292
 4462SOL    HW115393   1.159   6.358   6.267
 4462SOL    HW215394   1.097   6.283   6.383
 4463SOL     OW15395   1.768   6.190   5.825
 4463SOL    HW115396   1.749   6.186   5.730
 4463SOL    HW215397   1.715   6.116   5.859
 4464SOL     OW15398   0.757   6.751   6.625
 4464SOL    HW115399   0.688   6.792   6.681
 4464SOL    HW215400   0.787   6.829   6.575
 4465SOL     OW15401   0.904   6.346   7.388
 4465SOL    HW115402   0.863   6.415   7.441
 4465SOL    HW215403   0.923   6.393   7.304
 4466SOL     OW15404   0.682   6.603   6.231
 4466SOL    HW115405   0.743   6.587   6.305
 4466SOL    HW215406   0.611   6.655   6.272
 4467SOL     OW15407   0.706   6.750   7.382
 4467SOL    HW115408   0.753   6.832   7.408
 4467SOL    HW215409   0.620   6.784   7.353
 4468SOL     OW15410   0.320   7.011   6.657
 4468SOL    HW115411   0.246   6.973   6.607
 4468SOL    HW215412   0.365   7.066   6.589
 4469SOL     OW15413   1.471   7.088   6.955
 4469SOL    HW115414   1.527   7.168   6.971
 4469SOL    HW215415   1.404   7.096   7.025
 4470SOL     OW15416   0.440   5.972   7.122
 4470SOL    HW115417   0.523   5.929   7.097
 4470SOL    HW215418   0.372   5.911   7.091
 4471SOL     OW15419   1.618   6.038   6.323
 4471SOL    HW115420   1.547   6.070   6.266
 4471SOL    HW215421   1.611   6.097   6.399
 4472SOL     OW15422   0.220   7.260   6.048
 4472SOL    HW115423   0.218   7.334   6.111
 4472SOL    HW215424   0.289   7.290   5.986
 4473SOL     OW15425   1.119   6.927   7.246
 4473SOL    HW115426   1.168   6.927   7.329
 4473SOL    HW215427   1.074   6.841   7.250
 4474SOL     OW15428   0.230   6.993   6.096
 4474SOL    HW115429   0.223   7.090   6.088
 4474SOL    HW215430   0.162   6.974   6.163
 4475SOL     OW15431   0.259   6.703   6.487
 4475SOL    HW115432   0.240   6.621   6.535
 4475SOL    HW215433   0.196   6.766   6.527
 4476SOL     OW15434   0.615   7.392   6.996
 4476SOL    HW115435   0.539   7.362   7.049
 4476SOL    HW215436   0.629   7.483   7.028
 4477SOL     OW15437   0.582   6.580   5.701
 4477SOL    HW115438   0.630   6.634   5.635
 4477SOL    HW215439   0.625   6.608   5.784
 4478SOL     OW15440   1.610   5.696   7.092
 4478SOL    HW115441   1.611   5.774   7.035
 4478SOL    HW215442   1.620   5.736   7.180
 4479SOL     OW15443   0.122   6.223   6.140
 4479SOL    HW115444   0.104   6.128   6.151
 4479SOL    HW215445   0.106   6.259   6.230
 4480SOL     OW15446   1.843   7.318   5.938
 4480SOL    HW115447   1.913   7.297   6.003
 4480SOL    HW215448   1.866   7.409   5.917
 4481SOL     OW15449   0.055   7.183   5.711
 4481SOL    HW115450   0.025   7.091   5.725
 4481SOL    HW215451   0.054   7.219   5.800
 4482SOL     OW15452   1.694   6.496   6.218
 4482SOL    HW115453   1.771   6.467   6.168
 4482SOL    HW215454   1.652   6.557   6.155
 4483SOL     OW15455   1.638   6.704   6.038
 4483SOL    HW115456   1.726   6.700   5.999
 4483SOL    HW215457   1.648   6.775   6.105
 4484SOL     OW15458   0.125   6.318   7.174
 4484SOL    HW115459   0.208   6.362   7.199
 4484SOL    HW215460   0.065   6.393   7.158
 4485SOL     OW15461   0.617   6.979   6.344
 4485SOL    HW115462   0.576   6.892   6.360
 4485SOL    HW215463   0.597   6.989   6.249
 4486SOL     OW15464   1.281   6.815   7.004
 4486SOL    HW115465   1.310   6.741   6.948
 4486SOL    HW215466   1.339   6.804   7.083
 4487SOL     OW15467   0.823   5.583   6.087
 4487SOL    HW115468   0.853   5.675   6.077
 4487SOL    HW215469   0.726   5.594   6.091
 4488SOL     OW15470   0.173   6.575   6.825
 4488SOL    HW115471   0.258   6.530   6.814
 4488SOL    HW215472   0.110   6.505   6.803
 4489SOL     OW15473   1.557   6.538   5.761
 4489SOL    HW115474   1.478   6.487   5.789
 4489SOL    HW215475   1.589   6.572   5.845
 4490SOL     OW15476   1.181   7.380   7.201
 4490SOL    HW115477   1.180   7.441   7.127
 4490SOL    HW215478   1.207   7.296   7.157
 4491SOL     OW15479   0.325   5.831   7.382
 4491SOL    HW115480   0.390   5.888   7.425
 4491SOL    HW215481   0.243   5.852   7.429
 4492SOL     OW15482   1.471   7.007   6.538
 4492SOL    HW115483   1.414   7.029   6.614
 4492SOL    HW215484   1.440   6.917   6.516
 4493SOL     OW15485   1.649   7.325   6.181
 4493SOL    HW115486   1.632   7.285   6.094
 4493SOL    HW215487   1.619   7.254   6.241
 4494SOL     OW15488   0.588   6.305   5.842
 4494SOL    HW115489   0.603   6.398   5.820
 4494SOL    HW215490   0.518   6.309   5.910
 4495SOL     OW15491   1.271   5.917   6.492
 4495SOL    HW115492   1.182   5.885   6.517
 4495SOL    HW215493   1.327   5.875   6.561
 4496SOL     OW15494   1.570   7.228   5.897
 4496SOL    HW115495   1.662   7.258   5.897
 4496SOL    HW215496   1.555   7.208   5.803
 4497SOL     OW15497   0.789   6.217   7.046
 4497SOL    HW115498   0.773   6.179   7.135
 4497SOL    HW215499   0.753   6.148   6.988
 4498SOL     OW15500   1.393   6.068   7.250
 4498SOL    HW115501   1.401   6.124   7.329
 4498SOL    HW215502   1.451   5.993   7.272
 4499SOL     OW15503   0.962   6.475   7.162
 4499SOL    HW115504   1.001   6.391   7.126
 4499SOL    HW215505   0.910   6.505   7.085
 4500SOL     OW15506   0.982   5.986   6.815
 4500SOL    HW115507   0.890   6.005   6.838
 4500SOL    HW215508   0.975   5.936   6.733
 4501SOL     OW15509   1.043   6.269   5.995
 4501SOL    HW115510   1.063   6.288   6.088
 4501SOL    HW215511   0.958   6.221   6.002
 4502SOL     OW15512   0.087   6.382   6.355
 4502SOL    HW115513   0.169   6.373   6.406
 4502SOL    HW215514   0.048   6.460   6.400
 4503SOL     OW15515   0.139   7.402   7.155
 4503SOL    HW115516   0.142   7.396   7.253
 4503SOL    HW215517   0.050   7.434   7.138
 4504SOL     OW15518   0.887   5.975   5.791
 4504SOL    HW115519   0.934   6.025   5.722
 4504SOL    HW215520   0.901   5.884   5.762
 4505SOL     OW15521   1.712   6.193   7.435
 4505SOL    HW115522   1.675   6.261   7.374
 4505SOL    HW215523   1.753   6.132   7.372
 4506SOL     OW15524   1.367   6.737   6.147
 4506SOL    HW115525   1.447   6.729   6.092
 4506SOL    HW215526   1.312   6.796   6.094
 4507SOL     OW15527   0.586   5.798   6.479
 4507SOL    HW115528   0.584   5.802   6.577
 4507SOL    HW215529   0.566   5.889   6.455
 4508SOL     OW15530   0.984   7.023   6.073
 4508SOL    HW115531   0.949   7.088   6.009
 4508SOL    HW215532   0.999   7.077   6.152
 4509SOL     OW15533   0.370   7.400   6.421
 4509SOL    HW115534   0.388   7.305   6.436
 4509SOL    HW215535   0.455   7.438   6.447
 4510SOL     OW15536   1.803   6.634   6.482
 4510SOL    HW115537   1.751   6.619   6.402
 4510SOL    HW215538   1.737   6.627   6.553
 4511SOL     OW15539   1.229   7.133   7.090
 4511SOL    HW115540   1.199   7.069   7.157
 4511SOL    HW215541   1.183   7.100   7.012
 4512SOL     OW15542   0.325   6.539   5.842
 4512SOL    HW115543   0.395   6.565   5.779
 4512SOL    HW215544   0.297   6.453   5.807
 4513SOL     OW15545   1.478   6.336   6.298
 4513SOL    HW115546   1.473   6.306   6.389
 4513SOL    HW215547   1.560   6.389   6.298
 4514SOL     OW15548   0.463   6.851   7.311
 4514SOL    HW115549   0.432   6.856   7.218
 4514SOL    HW215550   0.382   6.875   7.359
 4515SOL     OW15551   1.109   7.357   5.827
 4515SOL    HW115552   1.038   7.307   5.871
 4515SOL    HW215553   1.121   7.307   5.744
 4516SOL     OW15554   0.178   5.858   7.091
 4516SOL    HW115555   0.100   5.907   7.126
 4516SOL    HW215556   0.199   5.801   7.165
 4517SOL     OW15557   1.619   6.952   5.670
 4517SOL    HW115558   1.559   7.027   5.655
 4517SOL    HW215559   1.566   6.875   5.639
 4518SOL     OW15560   0.451   7.326   5.910
 4518SOL    HW115561   0.502   7.372   5.979
 4518SOL    HW215562   0.521   7.291   5.852
 4519SOL     OW15563   1.396   5.720   6.042
 4519SOL    HW115564   1.392   5.671   5.959
 4519SOL    HW215565   1.492   5.724   6.058
 4520SOL     OW15566   0.256   7.380   6.811
 4520SOL    HW115567   0.297   7.304   6.855
 4520SOL    HW215568   0.233   7.345   6.724
 4521SOL     OW15569   0.950   7.284   6.474
 4521SOL    HW115570   1.035   7.239   6.479
 4521SOL    HW215571   0.908   7.236   6.400
 4522SOL     OW15572   0.410   6.279   6.049
 4522SOL    HW115573   0.428   6.185   6.067
 4522SOL    HW215574   0.318   6.285   6.078
 4523SOL     OW15575   1.540   5.847   7.313
 4523SOL    HW115576   1.543   5.851   7.412
 4523SOL    HW215577   1.488   5.767   7.301
 4524SOL     OW15578   0.622   5.718   5.688
 4524SOL    HW115579   0.695   5.658   5.707
 4524SOL    HW215580   0.574   5.669   5.618
 4525SOL     OW15581   0.766   5.853   7.344
 4525SOL    HW115582   0.844   5.794   7.350
 4525SOL    HW215583   0.715   5.830   7.423
 4526SOL     OW15584   0.876   7.128   6.783
 4526SOL    HW115585   0.869   7.103   6.690
 4526SOL    HW215586   0.939   7.063   6.819
 4527SOL     OW15587   1.324   6.194   7.022
 4527SOL    HW115588   1.362   6.156   7.104
 4527SOL    HW215589   1.385   6.268   7.003
 4528SOL     OW15590   0.827   6.994   6.524
 4528SOL    HW115591   0.912   6.979   6.478
 4528SOL    HW215592   0.763   6.994   6.451
 4529SOL     OW15593   0.944   6.110   6.500
 4529SOL    HW115594   0.911   6.099   6.407
 4529SOL    HW215595   0.971   6.019   6.520
 4530SOL     OW15596   0.561   5.639   6.085
 4530SOL    HW115597   0.479   5.637   6.137
 4530SOL    HW215598   0.548   5.719   6.031
 4531SOL     OW15599   1.449   6.753   5.611
 4531SOL    HW115600   1.476   6.676   5.665
 4531SOL    HW215601   1.363   6.776   5.649
 4532SOL     OW15602   0.291   5.628   5.788
 4532SOL    HW115603   0.354   5.692   5.754
 4532SOL    HW215604   0.348   5.567   5.837
 4533SOL     OW15605   0.930   5.840   6.073
 4533SOL    HW115606   0.914   5.895   5.994
 4533SOL    HW215607   1.027   5.849   6.082
 4534SOL     OW15608   1.071   6.266   7.053
 4534SOL    HW115609   1.025   6.181   7.052
 4534SOL    HW215610   1.166   6.241   7.047
 4535SOL     OW15611   1.226   7.175   6.380
 4535SOL    HW115612   1.230   7.225   6.296
 4535SOL    HW215613   1.308   7.201   6.423
 4536SOL     OW15614   0.461   6.751   6.317
 4536SOL    HW115615   0.386   6.733   6.377
 4536SOL    HW215616   0.423   6.726   6.230
 4537SOL     OW15617   1.256   7.395   6.181
 4537SOL    HW115618   1.305   7.469   6.140
 4537SOL    HW215619   1.204   7.442   6.248
 4538SOL     OW15620   1.063   6.117   5.612
 4538SOL    HW115621   1.017   6.201   5.592
 4538SOL    HW215622   1.130   6.143   5.677
 4539SOL     OW15623   0.062   6.156   6.971
 4539SOL    HW115624   0.153   6.144   6.941
 4539SOL    HW215625   0.075   6.217   7.045
 4540SOL     OW15626   0.577   5.811   6.751
 4540SOL    HW115627   0.618   5.737   6.798
 4540SOL    HW215628   0.485   5.808   6.782
 4541SOL     OW15629   0.875   6.046   6.252
 4541SOL    HW115630   0.834   6.094   6.178
 4541SOL    HW215631   0.890   5.958   6.213
 4542SOL     OW15632   0.985   5.663   6.355
 4542SOL    HW115633   0.947   5.637   6.270
 4542SOL    HW215634   0.985   5.579   6.405
 4543SOL     OW15635   1.408   6.753   6.471
 4543SOL    HW115636   1.355   6.675   6.495
 4543SOL    HW215637   1.412   6.746   6.375
 4544SOL     OW15638   1.477   6.161   6.566
 4544SOL    HW115639   1.420   6.085   6.581
 4544SOL    HW215640   1.532   6.164   6.647
 4545SOL     OW15641   1.835   6.406   5.987
 4545SOL    HW115642   1.892   6.348   6.041
 4545SOL    HW215643   1.816   6.348   5.912
 4546SOL     OW15644   0.488   6.989   5.753
 4546SOL    HW115645   0.405   6.960   5.796
 4546SOL    HW215646   0.474   6.964   5.662
 4547SOL     OW15647   1.669   6.882   6.236
 4547SOL    HW115648   1.765   6.879   6.253
 4547SOL    HW215649   1.641   6.966   6.276
 4548SOL     OW15650   1.410   6.178   5.648
 4548SOL    HW115651   1.363   6.155   5.730
 4548SOL    HW215652   1.493   6.129   5.659
 4549SOL     OW15653   0.522   5.836   5.906
 4549SOL    HW115654   0.564   5.795   5.828
 4549SOL    HW215655   0.496   5.922   5.868
 4550SOL     OW15656   1.733   6.817   7.163
 4550SOL    HW115657   1.822   6.777   7.161
 4550SOL    HW215658   1.757   6.910   7.180
 4551SOL     OW15659   1.064   6.962   6.929
 4551SOL    HW115660   0.986   6.925   6.975
 4551SOL    HW215661   1.136   6.907   6.969
 4552SOL     OW15662   1.602   7.188   7.228
 4552SOL    HW115663   1.611   7.230   7.141
 4552SOL    HW215664   1.683   7.135   7.233
 4553SOL     OW15665   1.130   6.814   6.687
 4553SOL    HW115666   1.062   6.838   6.751
 4553SOL    HW215667   1.098   6.856   6.606
 4554SOL     OW15668   1.591   6.677   6.662
 4554SOL    HW115669   1.604   6.740   6.736
 4554SOL    HW215670   1.535   6.730   6.601
 4555SOL     OW15671   0.909   5.692   6.985
 4555SOL    HW115672   0.943   5.668   6.897
 4555SOL    HW215673   0.988   5.730   7.026
 4556SOL     OW15674   0.990   6.696   7.322
 4556SOL    HW115675   0.896   6.714   7.343
 4556SOL    HW215676   0.984   6.621   7.260
 4557SOL     OW15677   0.710   6.643   5.941
 4557SOL    HW115678   0.688   6.614   6.031
 4557SOL    HW215679   0.792   6.594   5.922
 4558SOL     OW15680   0.388   6.408   6.840
 4558SOL    HW115681   0.456   6.413   6.910
 4558SOL    HW215682   0.364   6.313   6.843
 4559SOL     OW15683   1.289   5.973   6.863
 4559SOL    HW115684   1.308   6.052   6.917
 4559SOL    HW215685   1.198   5.989   6.834
 4560SOL     OW15686   0.036   7.158   6.959
 4560SOL    HW115687   0.006   7.230   6.902
 4560SOL    HW215688   0.132   7.170   6.960
 4561SOL     OW15689   0.358   6.685   6.077
 4561SOL    HW115690   0.372   6.757   6.015
 4561SOL    HW215691   0.338   6.610   6.018
 4562SOL     OW15692   0.554   6.130   6.429
 4562SOL    HW115693   0.581   6.191   6.357
 4562SOL    HW215694   0.609   6.159   6.503
 4563SOL     OW15695   1.219   6.919   5.971
 4563SOL    HW115696   1.262   6.995   6.014
 4563SOL    HW215697   1.128   6.930   6.003
 4564SOL     OW15698   1.309   7.052   6.746
 4564SOL    HW115699   1.366   7.052   6.825
 4564SOL    HW215700   1.243   6.984   6.767
 4565SOL     OW15701   1.584   6.205   6.062
 4565SOL    HW115702   1.535   6.257   6.128
 4565SOL    HW215703   1.620   6.275   6.006
 4566SOL     OW15704   0.323   7.117   6.897
 4566SOL    HW115705   0.309   7.066   6.815
 4566SOL    HW215706   0.420   7.129   6.893
 4567SOL     OW15707   0.422   6.329   7.201
 4567SOL    HW115708   0.488   6.367   7.141
 4567SOL    HW215709   0.440   6.234   7.191
 4568SOL     OW15710   1.622   6.365   7.266
 4568SOL    HW115711   1.533   6.405   7.258
 4568SOL    HW215712   1.668   6.408   7.191
 4569SOL     OW15713   0.986   5.695   7.337
 4569SOL    HW115714   1.046   5.770   7.325
 4569SOL    HW215715   1.040   5.623   7.300
 4570SOL     OW15716   0.487   5.610   7.338
 4570SOL    HW115717   0.449   5.551   7.270
 4570SOL    HW215718   0.422   5.683   7.340
 4571SOL     OW15719   0.601   6.480   6.626
 4571SOL    HW115720   0.624   6.574   6.633
 4571SOL    HW215721   0.541   6.467   6.701
 4572SOL     OW15722   1.354   6.442   6.610
 4572SOL    HW115723   1.268   6.405   6.585
 4572SOL    HW215724   1.408   6.363   6.619
 4573SOL     OW15725   1.228   6.109   5.854
 4573SOL    HW115726   1.239   6.038   5.920
 4573SOL    HW215727   1.160   6.163   5.897
 4574SOL     OW15728   0.307   5.787   6.840
 4574SOL    HW115729   0.240   5.810   6.908
 4574SOL    HW215730   0.296   5.689   6.836
 4575SOL     OW15731   0.069   6.901   6.855
 4575SOL    HW115732   0.113   6.847   6.923
 4575SOL    HW215733   0.052   6.985   6.901
 4576SOL     OW15734   0.723   6.225   6.636
 4576SOL    HW115735   0.806   6.203   6.590
 4576SOL    HW215736   0.706   6.319   6.614
 4577SOL     OW15737   1.763   6.538   7.431
 4577SOL    HW115738   1.719   6.471   7.376
 4577SOL    HW215739   1.699   6.550   7.502
 4578SOL     OW15740   0.292   5.635   6.192
 4578SOL    HW115741   0.273   5.727   6.216
 4578SOL    HW215742   0.316   5.599   6.280
 4579SOL     OW15743   1.594   5.968   5.932
 4579SOL    HW115744   1.629   5.897   5.988
 4579SOL    HW215745   1.591   6.044   5.994
 4580SOL     OW15746   1.073   6.337   6.566
 4580SOL    HW115747   1.039   6.355   6.655
 4580SOL    HW215748   1.040   6.246   6.552
 4581SOL     OW15749   0.979   7.154   7.294
 4581SOL    HW115750   0.962   7.207   7.213
 4581SOL    HW215751   1.004   7.067   7.257
 4582SOL     OW15752   1.843   7.076   7.196
 4582SOL    HW115753   1.865   7.102   7.105
 4582SOL    HW215754   1.923   7.104   7.244
 4583SOL     OW15755   0.349   6.477   7.410
 4583SOL    HW115756   0.434   6.498   7.451
 4583SOL    HW215757   0.376   6.412   7.342
 4584SOL     OW15758   1.502   5.853   5.710
 4584SOL    HW115759   1.432   5.793   5.741
 4584SOL    HW215760   1.539   5.889   5.793
 4585SOL     OW15761   1.297   6.418   5.616
 4585SOL    HW115762   1.340   6.331   5.623
 4585SOL    HW215763   1.322   6.444   5.525
 4586SOL     OW15764   1.067   6.947   6.429
 4586SOL    HW115765   1.086   6.869   6.373
 4586SOL    HW215766   1.139   7.009   6.407
 4587SOL     OW15767   0.283   6.416   6.547
 4587SOL    HW115768   0.371   6.441   6.517
 4587SOL    HW215769   0.298   6.329   6.587
 4588SOL     OW15770   0.341   6.134   6.588
 4588SOL    HW115771   0.301   6.046   6.574
 4588SOL    HW215772   0.412   6.134   6.519
 4589SOL     OW15773   1.155   5.948   7.287
 4589SOL    HW115774   1.109   6.005   7.353
 4589SOL    HW215775   1.241   5.992   7.280
 4590SOL     OW15776   1.165   5.784   7.071
 4590SOL    HW115777   1.168   5.847   7.146
 4590SOL    HW215778   1.215   5.831   7.003
 4591SOL     OW15779  11.083   6.919   5.774
 4591SOL    HW115780  10.993   6.923   5.738
 4591SOL    HW215781  11.082   6.831   5.818
 4592SOL     OW15782   0.139   7.380   6.549
 4592SOL    HW115783   0.104   7.307   6.494
 4592SOL    HW215784   0.221   7.403   6.500
 4593SOL     OW15785   0.488   7.168   6.499
 4593SOL    HW115786   0.560   7.234   6.507
 4593SOL    HW215787   0.532   7.097   6.449
 4594SOL     OW15788   0.957   6.352   6.813
 4594SOL    HW115789   1.006   6.321   6.892
 4594SOL    HW215790   0.866   6.330   6.838
 4595SOL     OW15791  11.085   6.180   6.683
 4595SOL    HW115792   0.055   6.134   6.636
 4595SOL    HW215793   0.003   6.156   6.775
 4596SOL     OW15794   0.210   6.121   7.341
 4596SOL    HW115795   0.266   6.065   7.285
 4596SOL    HW215796   0.170   6.182   7.276
 4597SOL     OW15797   1.391   6.508   7.231
 4597SOL    HW115798   1.413   6.603   7.233
 4597SOL    HW215799   1.379   6.492   7.136
 4598SOL     OW15800   0.794   6.146   5.988
 4598SOL    HW115801   0.810   6.089   5.911
 4598SOL    HW215802   0.714   6.194   5.961
 4599SOL     OW15803   1.642   6.210   6.785
 4599SOL    HW115804   1.626   6.145   6.854
 4599SOL    HW215805   1.726   6.179   6.747
 4600SOL     OW15806   0.265   7.125   7.309
 4600SOL    HW115807   0.233   7.197   7.366
 4600SOL    HW215808   0.248   7.046   7.365
 4601SOL     OW15809   0.692   6.058   6.850
 4601SOL    HW115810   0.645   5.981   6.815
 4601SOL    HW215811   0.687   6.122   6.776
 4602SOL     OW15812   0.905   7.276   7.058
 4602SOL    HW115813   0.888   7.240   6.969
 4602SOL    HW215814   0.903   7.372   7.043
 4603SOL     OW15815   0.456   6.071   5.781
 4603SOL    HW115816   0.521   6.144   5.783
 4603SOL    HW215817   0.372   6.122   5.777
 4604SOL     OW15818   0.170   6.714   7.059
 4604SOL    HW115819   0.176   6.655   7.136
 4604SOL    HW215820   0.174   6.652   6.983
 4605SOL     OW15821   1.323   6.629   6.820
 4605SOL    HW115822   1.341   6.569   6.746
 4605SOL    HW215823   1.260   6.691   6.779
 4606SOL     OW15824   1.327   6.441   5.888
 4606SOL    HW115825   1.251   6.405   5.937
 4606SOL    HW215826   1.298   6.436   5.795
 4607SOL     OW15827   1.751   7.336   6.710
 4607SOL    HW115828   1.827   7.359   6.652
 4607SOL    HW215829   1.746   7.239   6.698
 4608SOL     OW15830   1.247   7.312   6.699
 4608SOL    HW115831   1.337   7.331   6.671
 4608SOL    HW215832   1.250   7.216   6.711
 4609SOL     OW15833   0.083   6.881   6.588
 4609SOL    HW115834   0.084   6.893   6.685
 4609SOL    HW215835   0.014   6.814   6.578
 4610SOL     OW15836   0.662   7.237   7.328
 4610SOL    HW115837   0.610   7.318   7.317
 4610SOL    HW215838   0.740   7.254   7.274
 4611SOL     OW15839   1.678   5.729   6.077
 4611SOL    HW115840   1.755   5.718   6.020
 4611SOL    HW215841   1.679   5.647   6.131
 4612SOL     OW15842   1.357   7.155   6.066
 4612SOL    HW115843   1.427   7.169   5.999
 4612SOL    HW215844   1.326   7.246   6.081
 4613SOL     OW15845   0.172   7.376   7.425
 4613SOL    HW115846   0.117   7.314   7.477
 4613SOL    HW215847   0.219   7.422   7.496
 4614SOL     OW15848   1.256   6.502   6.246
 4614SOL    HW115849   1.335   6.449   6.263
 4614SOL    HW215850   1.294   6.581   6.203
 4615SOL     OW15851   0.811   6.850   7.026
 4615SOL    HW115852   0.777   6.897   7.105
 4615SOL    HW215853   0.739   6.865   6.963
 4616SOL     OW15854   0.656   7.212   5.745
 4616SOL    HW115855   0.669   7.216   5.649
 4616SOL    HW215856   0.611   7.126   5.755
 4617SOL     OW15857   1.621   7.308   6.978
 4617SOL    HW115858   1.662   7.324   6.892
 4617SOL    HW215859   1.609   7.399   7.013
 4618SOL     OW15860   1.849   5.748   6.551
 4618SOL    HW115861   1.869   5.657   6.526
 4618SOL    HW215862   1.761   5.764   6.510
 4619SOL     OW15863   0.254   5.880   6.288
 4619SOL    HW115864   0.161   5.907   6.274
 4619SOL    HW215865   0.262   5.887   6.384
 4620SOL     OW15866   1.182   7.206   5.611
 4620SOL    HW115867   1.180   7.111   5.634
 4620SOL    HW215868   1.121   7.211   5.535
 4621SOL     OW15869   0.806   6.585   6.965
 4621SOL    HW115870   0.838   6.592   6.875
 4621SOL    HW215871   0.818   6.675   7.001
 4622SOL     OW15872   0.925   6.508   5.861
 4622SOL    HW115873   0.999   6.547   5.811
 4622SOL    HW215874   0.961   6.426   5.896
 4623SOL     OW15875   1.462   7.172   5.623
 4623SOL    HW115876   1.366   7.169   5.635
 4623SOL    HW215877   1.475   7.263   5.597
 4624SOL     OW15878   0.384   6.871   7.059
 4624SOL    HW115879   0.353   6.953   7.019
 4624SOL    HW215880   0.309   6.810   7.047
 4625SOL     OW15881   1.603   6.889   6.846
 4625SOL    HW115882   1.657   6.862   6.922
 4625SOL    HW215883   1.547   6.960   6.885
 4626SOL     OW15884   1.050   6.691   6.307
 4626SOL    HW115885   0.978   6.643   6.351
 4626SOL    HW215886   1.108   6.619   6.277
 4627SOL     OW15887   1.035   5.816   6.574
 4627SOL    HW115888   1.010   5.775   6.489
 4627SOL    HW215889   1.037   5.738   6.633
 4628SOL     OW15890   0.590   7.038   6.069
 4628SOL    HW115891   0.656   7.014   6.002
 4628SOL    HW215892   0.520   7.079   6.017
 4629SOL     OW15893   1.715   5.955   6.969
 4629SOL    HW115894   1.782   6.026   6.962
 4629SOL    HW215895   1.755   5.885   6.913
 4630SOL     OW15896   0.237   6.929   5.844
 4630SOL    HW115897   0.141   6.945   5.831
 4630SOL    HW215898   0.245   6.949   5.941
 4631SOL     OW15899   0.134   6.604   7.328
 4631SOL    HW115900   0.064   6.565   7.382
 4631SOL    HW215901   0.215   6.559   7.364
 4632SOL     OW15902   0.678   5.796   7.080
 4632SOL    HW115903   0.767   5.766   7.052
 4632SOL    HW215904   0.694   5.820   7.173
 4633SOL     OW15905   0.090   5.919   5.637
 4633SOL    HW115906  11.101   5.915   5.604
 4633SOL    HW215907   0.124   5.997   5.590
 4634SOL     OW15908   1.460   6.441   6.970
 4634SOL    HW115909   1.420   6.511   6.914
 4634SOL    HW215910   1.553   6.466   6.969
 4635SOL     OW15911   0.076   5.760   5.899
 4635SOL    HW115912   0.069   5.830   5.832
 4635SOL    HW215913   0.154   5.711   5.869
 4636SOL     OW15914   1.205   6.938   5.698
 4636SOL    HW115915   1.129   6.879   5.700
 4636SOL    HW215916   1.229   6.940   5.792
 4637SOL     OW15917   0.606   6.409   7.013
 4637SOL    HW115918   0.666   6.486   7.005
 4637SOL    HW215919   0.674   6.340   7.026
 4638SOL     OW15920   1.517   7.347   6.544
 4638SOL    HW115921   1.548   7.388   6.463
 4638SOL    HW215922   1.597   7.342   6.598
 4639SOL     OW15923   0.726   6.125   7.281
 4639SOL    HW115924   0.761   6.181   7.352
 4639SOL    HW215925   0.734   6.035   7.317
 4640SOL     OW15926   1.462   6.770   7.209
 4640SOL    HW115927   1.455   6.774   7.307
 4640SOL    HW215928   1.557   6.787   7.195
 4641SOL     OW15929   0.392   7.315   7.150
 4641SOL    HW115930   0.305   7.357   7.134
 4641SOL    HW215931   0.363   7.230   7.189
 4642SOL     OW15932   1.712   6.473   6.812
 4642SOL    HW115933   1.687   6.381   6.790
 4642SOL    HW215934   1.660   6.527   6.750
 4643SOL     OW15935   1.213   5.916   6.060
 4643SOL    HW115936   1.281   5.846   6.056
 4643SOL    HW215937   1.246   5.969   6.136
 4644SOL     OW15938   0.607   6.330   6.238
 4644SOL    HW115939   0.633   6.423   6.233
 4644SOL    HW215940   0.538   6.323   6.169
 4645SOL     OW15941   1.769   5.973   7.235
 4645SOL    HW115942   1.746   5.985   7.141
 4645SOL    HW215943   1.693   5.922   7.267
 4646SOL     OW15944   1.728   6.522   7.079
 4646SOL    HW115945   1.744   6.617   7.087
 4646SOL    HW215946   1.754   6.503   6.988
 4647SOL     OW15947   0.858   6.953   5.613
 4647SOL    HW115948   0.839   6.959   5.708
 4647SOL    HW215949   0.889   7.041   5.589
 4648SOL     OW15950   0.658   7.383   6.485
 4648SOL    HW115951   0.655   7.480   6.475
 4648SOL    HW215952   0.752   7.365   6.498
 4649SOL     OW15953   0.871   6.535   6.437
 4649SOL    HW115954   0.920   6.462   6.479
 4649SOL    HW215955   0.848   6.591   6.513
 4650SOL     OW15956   1.104   6.605   5.679
 4650SOL    HW115957   1.066   6.644   5.598
 4650SOL    HW215958   1.160   6.533   5.643
 4651SOL     OW15959   1.865   7.144   6.424
 4651SOL    HW115960   1.772   7.139   6.398
 4651SOL    HW215961   1.872   7.075   6.491
 4652SOL     OW15962   0.222   6.894   7.438
 4652SOL    HW115963   0.180   6.810   7.416
 4652SOL    HW215964   0.216   6.895   7.535
 4653SOL     OW15965   0.082   6.824   6.251
 4653SOL    HW115966   0.095   6.765   6.326
 4653SOL    HW215967   0.154   6.798   6.193
 4654SOL     OW15968   0.668   6.991   7.209
 4654SOL    HW115969   0.589   6.941   7.235
 4654SOL    HW215970   0.656   7.075   7.258
 4655SOL     OW15971   1.814   5.754   6.812
 4655SOL    HW115972   1.824   5.658   6.818
 4655SOL    HW215973   1.825   5.765   6.716
 4656SOL     OW15974   0.426   6.016   6.112
 4656SOL    HW115975   0.463   5.946   6.056
 4656SOL    HW215976   0.380   5.967   6.182
 4657SOL     OW15977   1.719   7.077   6.674
 4657SOL    HW115978   1.640   7.043   6.630
 4657SOL    HW215979   1.723   7.016   6.749
 4658SOL     OW15980   0.326   6.134   6.858
 4658SOL    HW115981   0.381   6.067   6.900
 4658SOL    HW215982   0.334   6.115   6.763
 4659SOL     OW15983   0.827   7.182   6.259
 4659SOL    HW115984   0.807   7.227   6.175
 4659SOL    HW215985   0.752   7.122   6.271
 4660SOL     OW15986   1.421   5.819   6.685
 4660SOL    HW115987   1.469   5.742   6.719
 4660SOL    HW215988   1.388   5.863   6.765
 4661SOL     OW15989   1.016   5.591   6.743
 4661SOL    HW115990   0.959   5.520   6.711
 4661SOL    HW215991   1.105   5.547   6.741
 4662SOL     OW15992   0.791   6.922   5.899
 4662SOL    HW115993   0.759   6.830   5.906
 4662SOL    HW215994   0.859   6.923   5.969
 4663SOL     OW15995   0.596   7.143   6.862
 4663SOL    HW115996   0.600   7.228   6.909
 4663SOL    HW215997   0.688   7.135   6.835
 4664SOL     OW15998   1.313   5.639   5.744
 4664SOL    HW115999   1.328   5.560   5.691
 4664SOL    HW216000   1.226   5.618   5.783
 4665SOL     OW16001   1.293   6.060   6.268
 4665SOL    HW116002   1.230   6.135   6.270
 4665SOL    HW216003   1.277   6.016   6.353
 4666SOL     OW16004   1.607   5.794   6.451
 4666SOL    HW116005   1.526   5.790   6.505
 4666SOL    HW216006   1.598   5.878   6.403
 4667SOL     OW16007   0.033   6.668   5.884
 4667SOL    HW116008   0.128   6.677   5.867
 4667SOL    HW216009   0.027   6.572   5.904
 4668SOL     OW16010   0.889   7.235   5.919
 4668SOL    HW116011   0.812   7.221   5.862
 4668SOL    HW216012   0.864   7.314   5.971
 4669SOL     OW16013   0.247   6.243   7.586
 4669SOL    HW116014   0.160   6.221   7.623
 4669SOL    HW216015   0.243   6.204   7.496
 4670SOL     OW16016   0.227   5.879   8.456
 4670SOL    HW116017   0.258   5.852   8.545
 4670SOL    HW216018   0.172   5.803   8.433
 4671SOL     OW16019  11.098   5.956   8.088
 4671SOL    HW116020  11.014   5.994   8.115
 4671SOL    HW216021  11.072   5.869   8.051
 4672SOL     OW16022   0.579   6.891   8.618
 4672SOL    HW116023   0.492   6.898   8.576
 4672SOL    HW216024   0.585   6.978   8.663
 4673SOL     OW16025   1.539   7.111   8.156
 4673SOL    HW116026   1.512   7.099   8.249
 4673SOL    HW216027   1.455   7.117   8.109
 4674SOL     OW16028   1.140   6.280   8.151
 4674SOL    HW116029   1.196   6.285   8.229
 4674SOL    HW216030   1.054   6.259   8.189
 4675SOL     OW16031   1.772   6.198   7.695
 4675SOL    HW116032   1.758   6.208   7.598
 4675SOL    HW216033   1.768   6.102   7.703
 4676SOL     OW16034   0.749   6.748   8.472
 4676SOL    HW116035   0.685   6.791   8.532
 4676SOL    HW216036   0.787   6.828   8.430
 4677SOL     OW16037   0.891   6.332   9.253
 4677SOL    HW116038   0.867   6.399   9.318
 4677SOL    HW216039   0.915   6.386   9.175
 4678SOL     OW16040   0.684   6.602   8.099
 4678SOL    HW116041   0.745   6.587   8.173
 4678SOL    HW216042   0.613   6.656   8.139
 4679SOL     OW16043   0.698   6.742   9.243
 4679SOL    HW116044   0.742   6.821   9.280
 4679SOL    HW216045   0.612   6.777   9.214
 4680SOL     OW16046   0.331   7.008   8.522
 4680SOL    HW116047   0.253   6.973   8.476
 4680SOL    HW216048   0.369   7.069   8.455
 4681SOL     OW16049   1.474   7.089   8.819
 4681SOL    HW116050   1.525   7.171   8.833
 4681SOL    HW216051   1.404   7.098   8.886
 4682SOL     OW16052   0.446   5.967   8.984
 4682SOL    HW116053   0.526   5.921   8.954
 4682SOL    HW216054   0.374   5.914   8.947
 4683SOL     OW16055   1.617   6.029   8.187
 4683SOL    HW116056   1.550   6.061   8.124
 4683SOL    HW216057   1.600   6.086   8.263
 4684SOL     OW16058   0.253   7.245   7.945
 4684SOL    HW116059   0.236   7.327   7.994
 4684SOL    HW216060   0.283   7.279   7.860
 4685SOL     OW16061   1.125   6.921   9.112
 4685SOL    HW116062   1.160   6.929   9.202
 4685SOL    HW216063   1.076   6.837   9.119
 4686SOL     OW16064   0.232   6.982   7.963
 4686SOL    HW116065   0.236   7.080   7.962
 4686SOL    HW216066   0.157   6.967   8.023
 4687SOL     OW16067   0.261   6.697   8.344
 4687SOL    HW116068   0.250   6.615   8.395
 4687SOL    HW216069   0.197   6.756   8.387
 4688SOL     OW16070   0.620   7.381   8.866
 4688SOL    HW116071   0.541   7.360   8.919
 4688SOL    HW216072   0.637   7.474   8.890
 4689SOL     OW16073   0.579   6.579   7.565
 4689SOL    HW116074   0.623   6.636   7.498
 4689SOL    HW216075   0.622   6.612   7.646
 4690SOL     OW16076   1.609   5.688   8.936
 4690SOL    HW116077   1.629   5.754   8.869
 4690SOL    HW216078   1.610   5.740   9.018
 4691SOL     OW16079   0.133   6.219   8.004
 4691SOL    HW116080   0.110   6.125   8.014
 4691SOL    HW216081   0.110   6.257   8.091
 4692SOL     OW16082   1.843   7.326   7.793
 4692SOL    HW116083   1.916   7.311   7.857
 4692SOL    HW216084   1.853   7.421   7.774
 4693SOL     OW16085   0.057   7.187   7.576
 4693SOL    HW116086   0.027   7.097   7.593
 4693SOL    HW216087   0.021   7.237   7.649
 4694SOL     OW16088   1.656   6.503   8.084
 4694SOL    HW116089   1.747   6.471   8.073
 4694SOL    HW216090   1.648   6.566   8.010
 4695SOL     OW16091   1.644   6.706   7.894
 4695SOL    HW116092   1.733   6.707   7.855
 4695SOL    HW216093   1.652   6.776   7.961
 4696SOL     OW16094   0.124   6.329   9.051
 4696SOL    HW116095   0.218   6.349   9.062
 4696SOL    HW216096   0.084   6.417   9.046
 4697SOL     OW16097   0.617   6.983   8.211
 4697SOL    HW116098   0.576   6.896   8.226
 4697SOL    HW216099   0.599   6.993   8.116
 4698SOL     OW16100   1.278   6.810   8.865
 4698SOL    HW116101   1.319   6.739   8.814
 4698SOL    HW216102   1.330   6.807   8.948
 4699SOL     OW16103   0.179   6.576   8.701
 4699SOL    HW116104   0.263   6.526   8.695
 4699SOL    HW216105   0.118   6.513   8.661
 4700SOL     OW16106   1.548   6.555   7.634
 4700SOL    HW116107   1.469   6.508   7.666
 4700SOL    HW216108   1.590   6.584   7.717
 4701SOL     OW16109   1.188   7.367   9.088
 4701SOL    HW116110   1.207   7.448   9.035
 4701SOL    HW216111   1.206   7.298   9.022
 4702SOL     OW16112   0.325   5.807   9.278
 4702SOL    HW116113   0.378   5.883   9.250
 4702SOL    HW216114   0.240   5.849   9.303
 4703SOL     OW16115   1.477   7.015   8.408
 4703SOL    HW116116   1.414   7.035   8.480
 4703SOL    HW216117   1.451   6.924   8.384
 4704SOL     OW16118   1.652   7.326   8.046
 4704SOL    HW116119   1.647   7.282   7.960
 4704SOL    HW216120   1.624   7.254   8.106
 4705SOL     OW16121   0.590   6.303   7.705
 4705SOL    HW116122   0.605   6.395   7.678
 4705SOL    HW216123   0.523   6.310   7.776
 4706SOL     OW16124   1.273   5.915   8.353
 4706SOL    HW116125   1.184   5.884   8.378
 4706SOL    HW216126   1.328   5.875   8.424
 4707SOL     OW16127   1.566   7.233   7.753
 4707SOL    HW116128   1.657   7.265   7.754
 4707SOL    HW216129   1.552   7.219   7.658
 4708SOL     OW16130   0.801   6.214   8.898
 4708SOL    HW116131   0.786   6.177   8.987
 4708SOL    HW216132   0.758   6.147   8.841
 4709SOL     OW16133   1.397   6.061   9.126
 4709SOL    HW116134   1.407   6.117   9.206
 4709SOL    HW216135   1.456   5.986   9.146
 4710SOL     OW16136   0.959   6.473   9.031
 4710SOL    HW116137   1.002   6.395   8.990
 4710SOL    HW216138   0.908   6.507   8.955
 4711SOL     OW16139   0.985   5.985   8.678
 4711SOL    HW116140   0.894   5.995   8.709
 4711SOL    HW216141   0.975   5.931   8.598
 4712SOL     OW16142   1.038   6.272   7.857
 4712SOL    HW116143   1.054   6.286   7.951
 4712SOL    HW216144   0.953   6.222   7.858
 4713SOL     OW16145   0.102   6.386   8.214
 4713SOL    HW116146   0.177   6.378   8.275
 4713SOL    HW216147   0.058   6.466   8.249
 4714SOL     OW16148   0.140   7.411   9.009
 4714SOL    HW116149   0.140   7.400   9.106
 4714SOL    HW216150   0.049   7.435   8.989
 4715SOL     OW16151   0.885   5.994   7.640
 4715SOL    HW116152   0.933   6.036   7.567
 4715SOL    HW216153   0.914   5.903   7.637
 4716SOL     OW16154   1.720   6.168   9.291
 4716SOL    HW116155   1.680   6.245   9.243
 4716SOL    HW216156   1.751   6.116   9.217
 4717SOL     OW16157   1.364   6.728   8.002
 4717SOL    HW116158   1.446   6.735   7.951
 4717SOL    HW216159   1.310   6.798   7.960
 4718SOL     OW16160   0.580   5.791   8.337
 4718SOL    HW116161   0.581   5.803   8.434
 4718SOL    HW216162   0.559   5.880   8.305
 4719SOL     OW16163   0.982   7.032   7.938
 4719SOL    HW116164   0.945   7.097   7.874
 4719SOL    HW216165   0.975   7.081   8.021
 4720SOL     OW16166   0.367   7.406   8.284
 4720SOL    HW116167   0.390   7.313   8.301
 4720SOL    HW216168   0.448   7.451   8.312
 4721SOL     OW16169   1.793   6.643   8.319
 4721SOL    HW116170   1.738   6.637   8.240
 4721SOL    HW216171   1.729   6.629   8.391
 4722SOL     OW16172   1.228   7.126   8.941
 4722SOL    HW116173   1.202   7.051   8.997
 4722SOL    HW216174   1.174   7.111   8.862
 4723SOL     OW16175   0.314   6.535   7.706
 4723SOL    HW116176   0.390   6.555   7.649
 4723SOL    HW216177   0.292   6.444   7.678
 4724SOL     OW16178   1.451   6.358   8.176
 4724SOL    HW116179   1.460   6.301   8.254
 4724SOL    HW216180   1.539   6.400   8.171
 4725SOL     OW16181   0.459   6.844   9.170
 4725SOL    HW116182   0.430   6.850   9.076
 4725SOL    HW216183   0.375   6.856   9.217
 4726SOL     OW16184   1.098   7.353   7.686
 4726SOL    HW116185   1.026   7.301   7.727
 4726SOL    HW216186   1.112   7.307   7.601
 4727SOL     OW16187   0.178   5.857   8.946
 4727SOL    HW116188   0.092   5.897   8.967
 4727SOL    HW216189   0.167   5.768   8.983
 4728SOL     OW16190   1.620   6.948   7.542
 4728SOL    HW116191   1.574   7.030   7.518
 4728SOL    HW216192   1.562   6.879   7.504
 4729SOL     OW16193   0.461   7.321   7.770
 4729SOL    HW116194   0.501   7.375   7.841
 4729SOL    HW216195   0.538   7.292   7.719
 4730SOL     OW16196   1.393   5.696   7.884
 4730SOL    HW116197   1.383   5.651   7.798
 4730SOL    HW216198   1.489   5.712   7.888
 4731SOL     OW16199   0.266   7.386   8.674
 4731SOL    HW116200   0.303   7.304   8.711
 4731SOL    HW216201   0.232   7.358   8.588
 4732SOL     OW16202   0.944   7.294   8.335
 4732SOL    HW116203   1.023   7.247   8.361
 4732SOL    HW216204   0.910   7.240   8.261
 4733SOL     OW16205   0.417   6.278   7.917
 4733SOL    HW116206   0.440   6.183   7.929
 4733SOL    HW216207   0.325   6.277   7.945
 4734SOL     OW16208   1.544   5.843   9.181
 4734SOL    HW116209   1.541   5.849   9.280
 4734SOL    HW216210   1.493   5.762   9.168
 4735SOL     OW16211   0.617   5.718   7.546
 4735SOL    HW116212   0.689   5.660   7.571
 4735SOL    HW216213   0.575   5.667   7.473
 4736SOL     OW16214   0.775   5.852   9.200
 4736SOL    HW116215   0.852   5.791   9.204
 4736SOL    HW216216   0.718   5.822   9.272
 4737SOL     OW16217   0.874   7.112   8.638
 4737SOL    HW116218   0.862   7.084   8.545
 4737SOL    HW216219   0.929   7.041   8.674
 4738SOL     OW16220   1.327   6.179   8.877
 4738SOL    HW116221   1.364   6.147   8.962
 4738SOL    HW216222   1.385   6.255   8.858
 4739SOL     OW16223   0.838   6.991   8.389
 4739SOL    HW116224   0.922   6.975   8.340
 4739SOL    HW216225   0.773   7.001   8.317
 4740SOL     OW16226   0.941   6.121   8.353
 4740SOL    HW116227   0.909   6.109   8.260
 4740SOL    HW216228   0.957   6.028   8.378
 4741SOL     OW16229   0.514   5.628   7.945
 4741SOL    HW116230   0.433   5.644   7.996
 4741SOL    HW216231   0.532   5.715   7.904
 4742SOL     OW16232   1.449   6.754   7.470
 4742SOL    HW116233   1.478   6.679   7.525
 4742SOL    HW216234   1.364   6.780   7.509
 4743SOL     OW16235   0.296   5.621   7.652
 4743SOL    HW116236   0.359   5.691   7.630
 4743SOL    HW216237   0.353   5.556   7.698
 4744SOL     OW16238   0.926   5.864   7.960
 4744SOL    HW116239   0.885   5.776   7.952
 4744SOL    HW216240   1.020   5.843   7.947
 4745SOL     OW16241   1.078   6.270   8.905
 4745SOL    HW116242   1.028   6.187   8.915
 4745SOL    HW216243   1.171   6.240   8.902
 4746SOL     OW16244   1.245   7.150   8.213
 4746SOL    HW116245   1.234   7.219   8.145
 4746SOL    HW216246   1.296   7.197   8.280
 4747SOL     OW16247   0.464   6.754   8.179
 4747SOL    HW116248   0.388   6.734   8.238
 4747SOL    HW216249   0.428   6.730   8.091
 4748SOL     OW16250   1.240   7.402   8.055
 4748SOL    HW116251   1.293   7.471   8.011
 4748SOL    HW216252   1.195   7.452   8.124
 4749SOL     OW16253   1.063   6.126   7.470
 4749SOL    HW116254   1.015   6.208   7.448
 4749SOL    HW216255   1.130   6.155   7.535
 4750SOL     OW16256   0.067   6.167   8.846
 4750SOL    HW116257   0.155   6.151   8.809
 4750SOL    HW216258   0.084   6.236   8.913
 4751SOL     OW16259   0.583   5.800   8.609
 4751SOL    HW116260   0.624   5.720   8.643
 4751SOL    HW216261   0.490   5.792   8.639
 4752SOL     OW16262   0.876   6.085   8.103
 4752SOL    HW116263   0.817   6.122   8.036
 4752SOL    HW216264   0.898   5.999   8.060
 4753SOL     OW16265   1.039   5.652   8.234
 4753SOL    HW116266   0.991   5.644   8.149
 4753SOL    HW216267   1.006   5.575   8.282
 4754SOL     OW16268   1.417   6.770   8.332
 4754SOL    HW116269   1.347   6.703   8.343
 4754SOL    HW216270   1.419   6.782   8.236
 4755SOL     OW16271   1.486   6.172   8.420
 4755SOL    HW116272   1.428   6.097   8.440
 4755SOL    HW216273   1.547   6.173   8.495
 4756SOL     OW16274   1.840   6.413   7.847
 4756SOL    HW116275   1.898   6.356   7.901
 4756SOL    HW216276   1.822   6.353   7.772
 4757SOL     OW16277   0.499   7.011   7.588
 4757SOL    HW116278   0.420   6.985   7.638
 4757SOL    HW216279   0.489   6.961   7.507
 4758SOL     OW16280   1.665   6.870   8.104
 4758SOL    HW116281   1.763   6.876   8.109
 4758SOL    HW216282   1.636   6.959   8.128
 4759SOL     OW16283   1.410   6.180   7.510
 4759SOL    HW116284   1.365   6.148   7.591
 4759SOL    HW216285   1.501   6.149   7.524
 4760SOL     OW16286   0.521   5.835   7.769
 4760SOL    HW116287   0.569   5.792   7.695
 4760SOL    HW216288   0.500   5.921   7.727
 4761SOL     OW16289   1.733   6.814   9.023
 4761SOL    HW116290   1.822   6.777   9.026
 4761SOL    HW216291   1.751   6.909   9.035
 4762SOL     OW16292   1.056   6.933   8.776
 4762SOL    HW116293   0.980   6.907   8.831
 4762SOL    HW216294   1.130   6.888   8.823
 4763SOL     OW16295   1.608   7.219   9.084
 4763SOL    HW116296   1.611   7.262   8.997
 4763SOL    HW216297   1.690   7.166   9.082
 4764SOL     OW16298   1.104   6.811   8.533
 4764SOL    HW116299   1.067   6.848   8.614
 4764SOL    HW216300   1.073   6.873   8.465
 4765SOL     OW16301   1.592   6.674   8.524
 4765SOL    HW116302   1.609   6.741   8.594
 4765SOL    HW216303   1.532   6.724   8.466
 4766SOL     OW16304   0.910   5.694   8.825
 4766SOL    HW116305   0.950   5.665   8.740
 4766SOL    HW216306   0.989   5.728   8.872
 4767SOL     OW16307   0.988   6.696   9.192
 4767SOL    HW116308   0.896   6.724   9.205
 4767SOL    HW216309   0.981   6.621   9.130
 4768SOL     OW16310   0.709   6.651   7.805
 4768SOL    HW116311   0.687   6.619   7.893
 4768SOL    HW216312   0.792   6.603   7.785
 4769SOL     OW16313   0.384   6.399   8.716
 4769SOL    HW116314   0.465   6.402   8.772
 4769SOL    HW216315   0.367   6.304   8.711
 4770SOL     OW16316   1.281   5.974   8.707
 4770SOL    HW116317   1.298   6.049   8.767
 4770SOL    HW216318   1.187   5.986   8.683
 4771SOL     OW16319   0.036   7.166   8.817
 4771SOL    HW116320   0.003   7.237   8.759
 4771SOL    HW216321   0.131   7.187   8.823
 4772SOL     OW16322   0.363   6.690   7.942
 4772SOL    HW116323   0.364   6.764   7.881
 4772SOL    HW216324   0.333   6.617   7.885
 4773SOL     OW16325   0.552   6.117   8.293
 4773SOL    HW116326   0.581   6.179   8.224
 4773SOL    HW216327   0.607   6.144   8.369
 4774SOL     OW16328   1.222   6.922   7.844
 4774SOL    HW116329   1.267   7.003   7.874
 4774SOL    HW216330   1.131   6.943   7.868
 4775SOL     OW16331   1.302   7.055   8.619
 4775SOL    HW116332   1.366   7.063   8.692
 4775SOL    HW216333   1.242   6.987   8.651
 4776SOL     OW16334   1.594   6.201   7.923
 4776SOL    HW116335   1.569   6.283   7.969
 4776SOL    HW216336   1.639   6.233   7.844
 4777SOL     OW16337   0.334   7.125   8.758
 4777SOL    HW116338   0.329   7.075   8.674
 4777SOL    HW216339   0.431   7.141   8.762
 4778SOL     OW16340   0.412   6.317   9.056
 4778SOL    HW116341   0.472   6.364   8.995
 4778SOL    HW216342   0.448   6.228   9.051
 4779SOL     OW16343   1.626   6.359   9.131
 4779SOL    HW116344   1.537   6.398   9.132
 4779SOL    HW216345   1.667   6.405   9.054
 4780SOL     OW16346   0.992   5.693   9.199
 4780SOL    HW116347   1.058   5.762   9.187
 4780SOL    HW216348   1.038   5.618   9.158
 4781SOL     OW16349   0.493   5.608   9.214
 4781SOL    HW116350   0.455   5.552   9.142
 4781SOL    HW216351   0.426   5.679   9.220
 4782SOL     OW16352   0.614   6.471   8.499
 4782SOL    HW116353   0.630   6.566   8.497
 4782SOL    HW216354   0.549   6.461   8.570
 4783SOL     OW16355   1.343   6.456   8.443
 4783SOL    HW116356   1.257   6.410   8.446
 4783SOL    HW216357   1.403   6.387   8.474
 4784SOL     OW16358   1.229   6.114   7.716
 4784SOL    HW116359   1.237   6.039   7.778
 4784SOL    HW216360   1.151   6.159   7.754
 4785SOL     OW16361   0.321   5.778   8.698
 4785SOL    HW116362   0.252   5.804   8.762
 4785SOL    HW216363   0.306   5.681   8.692
 4786SOL     OW16364   0.043   6.896   8.730
 4786SOL    HW116365   0.097   6.845   8.793
 4786SOL    HW216366   0.045   6.986   8.769
 4787SOL     OW16367   0.723   6.215   8.495
 4787SOL    HW116368   0.807   6.195   8.450
 4787SOL    HW216369   0.708   6.310   8.478
 4788SOL     OW16370   1.760   6.538   9.294
 4788SOL    HW116371   1.715   6.468   9.243
 4788SOL    HW216372   1.695   6.552   9.365
 4789SOL     OW16373   0.270   5.632   8.064
 4789SOL    HW116374   0.261   5.725   8.090
 4789SOL    HW216375   0.305   5.593   8.148
 4790SOL     OW16376   1.582   5.958   7.799
 4790SOL    HW116377   1.623   5.890   7.855
 4790SOL    HW216378   1.585   6.037   7.856
 4791SOL     OW16379   1.086   6.334   8.432
 4791SOL    HW116380   1.044   6.352   8.518
 4791SOL    HW216381   1.044   6.248   8.409
 4792SOL     OW16382   0.971   7.142   9.148
 4792SOL    HW116383   0.963   7.201   9.070
 4792SOL    HW216384   1.012   7.063   9.111
 4793SOL     OW16385   1.844   7.086   9.047
 4793SOL    HW116386   1.877   7.104   8.957
 4793SOL    HW216387   1.921   7.111   9.102
 4794SOL     OW16388   0.362   6.492   9.256
 4794SOL    HW116389   0.445   6.521   9.296
 4794SOL    HW216390   0.390   6.417   9.199
 4795SOL     OW16391   1.520   5.843   7.569
 4795SOL    HW116392   1.450   5.785   7.602
 4795SOL    HW216393   1.552   5.887   7.651
 4796SOL     OW16394   1.300   6.424   7.470
 4796SOL    HW116395   1.349   6.340   7.483
 4796SOL    HW216396   1.328   6.449   7.379
 4797SOL     OW16397   1.073   6.948   8.284
 4797SOL    HW116398   1.102   6.869   8.237
 4797SOL    HW216399   1.141   7.014   8.258
 4798SOL     OW16400   0.278   6.412   8.428
 4798SOL    HW116401   0.364   6.431   8.389
 4798SOL    HW216402   0.292   6.325   8.468
 4799SOL     OW16403   0.340   6.128   8.451
 4799SOL    HW116404   0.300   6.040   8.437
 4799SOL    HW216405   0.412   6.127   8.385
 4800SOL     OW16406   1.157   5.957   9.132
 4800SOL    HW116407   1.112   6.011   9.201
 4800SOL    HW216408   1.246   5.996   9.134
 4801SOL     OW16409   1.157   5.786   8.927
 4801SOL    HW116410   1.159   5.849   9.003
 4801SOL    HW216411   1.208   5.835   8.861
 4802SOL     OW16412  11.089   6.915   7.631
 4802SOL    HW116413  10.997   6.927   7.604
 4802SOL    HW216414  11.085   6.830   7.680
 4803SOL     OW16415   0.140   7.381   8.417
 4803SOL    HW116416   0.094   7.324   8.353
 4803SOL    HW216417   0.221   7.403   8.365
 4804SOL     OW16418   0.490   7.171   8.363
 4804SOL    HW116419   0.562   7.237   8.369
 4804SOL    HW216420   0.532   7.099   8.313
 4805SOL     OW16421   0.964   6.353   8.671
 4805SOL    HW116422   1.017   6.329   8.749
 4805SOL    HW216423   0.877   6.325   8.700
 4806SOL     OW16424   0.005   6.194   8.551
 4806SOL    HW116425   0.068   6.146   8.495
 4806SOL    HW216426   0.018   6.152   8.637
 4807SOL     OW16427   0.215   6.110   9.192
 4807SOL    HW116428   0.253   6.056   9.121
 4807SOL    HW216429   0.171   6.180   9.139
 4808SOL     OW16430   1.374   6.491   9.098
 4808SOL    HW116431   1.394   6.586   9.093
 4808SOL    HW216432   1.369   6.466   9.004
 4809SOL     OW16433   0.799   6.156   7.840
 4809SOL    HW116434   0.826   6.084   7.780
 4809SOL    HW216435   0.721   6.191   7.794
 4810SOL     OW16436   1.643   6.201   8.646
 4810SOL    HW116437   1.624   6.139   8.718
 4810SOL    HW216438   1.730   6.169   8.614
 4811SOL     OW16439   0.260   7.129   9.176
 4811SOL    HW116440   0.233   7.204   9.230
 4811SOL    HW216441   0.248   7.053   9.236
 4812SOL     OW16442   0.681   6.057   8.713
 4812SOL    HW116443   0.647   5.975   8.675
 4812SOL    HW216444   0.683   6.117   8.635
 4813SOL     OW16445   0.915   7.274   8.916
 4813SOL    HW116446   0.896   7.247   8.825
 4813SOL    HW216447   0.919   7.371   8.909
 4814SOL     OW16448   0.452   6.071   7.629
 4814SOL    HW116449   0.518   6.142   7.635
 4814SOL    HW216450   0.370   6.124   7.632
 4815SOL     OW16451   0.156   6.717   8.926
 4815SOL    HW116452   0.174   6.661   9.003
 4815SOL    HW216453   0.167   6.656   8.849
 4816SOL     OW16454   1.322   6.622   8.676
 4816SOL    HW116455   1.340   6.573   8.594
 4816SOL    HW216456   1.252   6.683   8.648
 4817SOL     OW16457   1.309   6.444   7.745
 4817SOL    HW116458   1.233   6.391   7.772
 4817SOL    HW216459   1.295   6.451   7.649
 4818SOL     OW16460   1.754   7.336   8.582
 4818SOL    HW116461   1.827   7.360   8.523
 4818SOL    HW216462   1.746   7.240   8.564
 4819SOL     OW16463   1.237   7.306   8.546
 4819SOL    HW116464   1.326   7.340   8.556
 4819SOL    HW216465   1.248   7.212   8.572
 4820SOL     OW16466   0.090   6.876   8.460
 4820SOL    HW116467   0.085   6.881   8.557
 4820SOL    HW216468   0.022   6.811   8.438
 4821SOL     OW16469   0.679   7.229   9.186
 4821SOL    HW116470   0.631   7.313   9.181
 4821SOL    HW216471   0.758   7.248   9.134
 4822SOL     OW16472   1.678   5.723   7.940
 4822SOL    HW116473   1.755   5.709   7.882
 4822SOL    HW216474   1.679   5.642   7.996
 4823SOL     OW16475   1.352   7.160   7.926
 4823SOL    HW116476   1.419   7.175   7.856
 4823SOL    HW216477   1.320   7.250   7.943
 4824SOL     OW16478   0.162   7.378   9.285
 4824SOL    HW116479   0.114   7.312   9.339
 4824SOL    HW216480   0.209   7.427   9.355
 4825SOL     OW16481   0.808   6.836   8.897
 4825SOL    HW116482   0.783   6.887   8.977
 4825SOL    HW216483   0.736   6.863   8.837
 4826SOL     OW16484   0.676   7.211   7.605
 4826SOL    HW116485   0.678   7.221   7.509
 4826SOL    HW216486   0.621   7.129   7.611
 4827SOL     OW16487   1.617   7.314   8.840
 4827SOL    HW116488   1.663   7.332   8.756
 4827SOL    HW216489   1.600   7.405   8.874
 4828SOL     OW16490   1.839   5.753   8.422
 4828SOL    HW116491   1.859   5.665   8.386
 4828SOL    HW216492   1.751   5.773   8.382
 4829SOL     OW16493   0.259   5.886   8.146
 4829SOL    HW116494   0.166   5.909   8.129
 4829SOL    HW216495   0.264   5.896   8.242
 4830SOL     OW16496   1.178   7.205   7.473
 4830SOL    HW116497   1.196   7.110   7.489
 4830SOL    HW216498   1.120   7.203   7.394
 4831SOL     OW16499   0.816   6.578   8.826
 4831SOL    HW116500   0.849   6.591   8.736
 4831SOL    HW216501   0.817   6.669   8.862
 4832SOL     OW16502   0.930   6.514   7.738
 4832SOL    HW116503   0.999   6.544   7.675
 4832SOL    HW216504   0.954   6.422   7.756
 4833SOL     OW16505   1.501   7.178   7.480
 4833SOL    HW116506   1.413   7.217   7.473
 4833SOL    HW216507   1.535   7.186   7.388
 4834SOL     OW16508   0.383   6.859   8.915
 4834SOL    HW116509   0.367   6.943   8.868
 4834SOL    HW216510   0.299   6.812   8.906
 4835SOL     OW16511   1.600   6.892   8.701
 4835SOL    HW116512   1.658   6.870   8.776
 4835SOL    HW216513   1.545   6.963   8.739
 4836SOL     OW16514   1.081   6.654   8.155
 4836SOL    HW116515   1.009   6.625   8.215
 4836SOL    HW216516   1.032   6.677   8.075
 4837SOL     OW16517   1.034   5.818   8.439
 4837SOL    HW116518   1.025   5.773   8.352
 4837SOL    HW216519   1.036   5.739   8.497
 4838SOL     OW16520   0.601   7.052   7.943
 4838SOL    HW116521   0.660   7.025   7.871
 4838SOL    HW216522   0.529   7.097   7.897
 4839SOL     OW16523   1.713   5.959   8.829
 4839SOL    HW116524   1.778   6.031   8.825
 4839SOL    HW216525   1.753   5.893   8.769
 4840SOL     OW16526   0.243   6.939   7.709
 4840SOL    HW116527   0.147   6.950   7.695
 4840SOL    HW216528   0.249   6.952   7.806
 4841SOL     OW16529   0.134   6.588   9.175
 4841SOL    HW116530   0.072   6.554   9.241
 4841SOL    HW216531   0.220   6.554   9.210
 4842SOL     OW16532   0.676   5.780   8.944
 4842SOL    HW116533   0.762   5.752   8.908
 4842SOL    HW216534   0.702   5.817   9.030
 4843SOL     OW16535   0.087   5.924   7.505
 4843SOL    HW116536  11.095   5.921   7.483
 4843SOL    HW216537   0.115   6.002   7.454
 4844SOL     OW16538   1.450   6.435   8.833
 4844SOL    HW116539   1.409   6.503   8.776
 4844SOL    HW216540   1.543   6.463   8.829
 4845SOL     OW16541   0.072   5.752   7.750
 4845SOL    HW116542   0.077   5.826   7.687
 4845SOL    HW216543   0.152   5.702   7.727
 4846SOL     OW16544   1.214   6.931   7.557
 4846SOL    HW116545   1.128   6.889   7.561
 4846SOL    HW216546   1.237   6.940   7.651
 4847SOL     OW16547   0.610   6.400   8.868
 4847SOL    HW116548   0.669   6.477   8.857
 4847SOL    HW216549   0.678   6.331   8.885
 4848SOL     OW16550   1.525   7.333   8.399
 4848SOL    HW116551   1.547   7.402   8.335
 4848SOL    HW216552   1.594   7.342   8.465
 4849SOL     OW16553   0.732   6.122   9.141
 4849SOL    HW116554   0.782   6.180   9.202
 4849SOL    HW216555   0.747   6.032   9.175
 4850SOL     OW16556   1.459   6.764   9.076
 4850SOL    HW116557   1.452   6.772   9.174
 4850SOL    HW216558   1.553   6.785   9.061
 4851SOL     OW16559   0.390   7.316   9.011
 4851SOL    HW116560   0.305   7.363   8.996
 4851SOL    HW216561   0.358   7.233   9.051
 4852SOL     OW16562   1.696   6.466   8.676
 4852SOL    HW116563   1.675   6.376   8.647
 4852SOL    HW216564   1.655   6.523   8.608
 4853SOL     OW16565   1.228   5.924   7.915
 4853SOL    HW116566   1.280   5.843   7.907
 4853SOL    HW216567   1.274   5.970   7.989
 4854SOL     OW16568   0.618   6.325   8.103
 4854SOL    HW116569   0.643   6.418   8.097
 4854SOL    HW216570   0.547   6.318   8.036
 4855SOL     OW16571   1.767   5.960   9.089
 4855SOL    HW116572   1.736   5.969   8.997
 4855SOL    HW216573   1.691   5.915   9.130
 4856SOL     OW16574   1.730   6.519   8.939
 4856SOL    HW116575   1.749   6.613   8.950
 4856SOL    HW216576   1.744   6.504   8.844
 4857SOL     OW16577   0.856   6.958   7.474
 4857SOL    HW116578   0.840   6.971   7.569
 4857SOL    HW216579   0.887   7.043   7.442
 4858SOL     OW16580   0.655   7.387   8.353
 4858SOL    HW116581   0.646   7.484   8.342
 4858SOL    HW216582   0.750   7.375   8.367
 4859SOL     OW16583   0.876   6.545   8.302
 4859SOL    HW116584   0.911   6.471   8.351
 4859SOL    HW216585   0.843   6.604   8.372
 4860SOL     OW16586   1.105   6.591   7.544
 4860SOL    HW116587   1.068   6.635   7.465
 4860SOL    HW216588   1.168   6.528   7.504
 4861SOL     OW16589   1.863   7.141   8.282
 4861SOL    HW116590   1.768   7.141   8.270
 4861SOL    HW216591   1.876   7.073   8.350
 4862SOL     OW16592   0.217   6.886   9.308
 4862SOL    HW116593   0.168   6.803   9.296
 4862SOL    HW216594   0.225   6.891   9.405
 4863SOL     OW16595   0.085   6.819   8.112
 4863SOL    HW116596   0.096   6.755   8.183
 4863SOL    HW216597   0.163   6.801   8.056
 4864SOL     OW16598   0.668   6.988   9.066
 4864SOL    HW116599   0.589   6.942   9.097
 4864SOL    HW216600   0.663   7.073   9.115
 4865SOL     OW16601   1.807   5.753   8.681
 4865SOL    HW116602   1.828   5.659   8.688
 4865SOL    HW216603   1.817   5.767   8.584
 4866SOL     OW16604   0.438   6.012   7.977
 4866SOL    HW116605   0.471   5.943   7.918
 4866SOL    HW216606   0.390   5.962   8.046
 4867SOL     OW16607   1.724   7.074   8.529
 4867SOL    HW116608   1.639   7.056   8.485
 4867SOL    HW216609   1.719   7.013   8.604
 4868SOL     OW16610   0.336   6.124   8.724
 4868SOL    HW116611   0.397   6.060   8.764
 4868SOL    HW216612   0.342   6.102   8.629
 4869SOL     OW16613   0.819   7.185   8.116
 4869SOL    HW116614   0.797   7.245   8.043
 4869SOL    HW216615   0.737   7.134   8.127
 4870SOL     OW16616   1.429   5.822   8.547
 4870SOL    HW116617   1.459   5.744   8.596
 4870SOL    HW216618   1.381   5.873   8.615
 4871SOL     OW16619   1.022   5.588   8.598
 4871SOL    HW116620   0.966   5.515   8.569
 4871SOL    HW216621   1.111   5.548   8.595
 4872SOL     OW16622   0.796   6.919   7.758
 4872SOL    HW116623   0.763   6.829   7.769
 4872SOL    HW216624   0.866   6.925   7.824
 4873SOL     OW16625   0.604   7.144   8.726
 4873SOL    HW116626   0.607   7.229   8.773
 4873SOL    HW216627   0.697   7.137   8.701
 4874SOL     OW16628   1.332   5.605   7.620
 4874SOL    HW116629   1.334   5.545   7.545
 4874SOL    HW216630   1.244   5.581   7.659
 4875SOL     OW16631   1.323   6.065   8.133
 4875SOL    HW116632   1.245   6.119   8.115
 4875SOL    HW216633   1.298   6.015   8.214
 4876SOL     OW16634   1.599   5.787   8.312
 4876SOL    HW116635   1.521   5.800   8.368
 4876SOL    HW216636   1.598   5.864   8.253
 4877SOL     OW16637   0.041   6.666   7.746
 4877SOL    HW116638   0.135   6.664   7.726
 4877SOL    HW216639   0.024   6.572   7.766
 4878SOL     OW16640   0.889   7.232   7.780
 4878SOL    HW116641   0.814   7.219   7.718
 4878SOL    HW216642   0.865   7.315   7.827
 4879SOL     OW16643   0.243   6.217   9.444
 4879SOL    HW116644   0.153   6.206   9.480
 4879SOL    HW216645   0.234   6.184   9.352
 4880SOL     OW16646   0.234   5.854  10.284
 4880SOL    HW116647   0.267   5.841  10.375
 4880SOL    HW216648   0.158   5.795  10.283
 4881SOL     OW16649   0.002   5.966   9.947
 4881SOL    HW116650  11.025   5.994   9.995
 4881SOL    HW216651  11.076   5.880   9.910
 4882SOL     OW16652   0.572   6.870  10.480
 4882SOL    HW116653   0.491   6.870  10.428
 4882SOL    HW216654   0.571   6.960  10.517
 4883SOL     OW16655   1.526   7.121  10.018
 4883SOL    HW116656   1.492   7.091  10.105
 4883SOL    HW216657   1.448   7.120   9.959
 4884SOL     OW16658   1.116   6.271  10.000
 4884SOL    HW116659   1.160   6.357   9.991
 4884SOL    HW216660   1.065   6.284  10.082
 4885SOL     OW16661   1.772   6.193   9.550
 4885SOL    HW116662   1.754   6.184   9.454
 4885SOL    HW216663   1.718   6.122   9.587
 4886SOL     OW16664   0.768   6.747  10.337
 4886SOL    HW116665   0.699   6.789  10.392
 4886SOL    HW216666   0.795   6.825  10.284
 4887SOL     OW16667   0.824   6.351   0.015
 4887SOL    HW116668   0.850   6.418   0.079
 4887SOL    HW216669   0.861   6.389  11.034
 4888SOL     OW16670   0.689   6.593   9.975
 4888SOL    HW116671   0.748   6.584  10.052
 4888SOL    HW216672   0.614   6.642  10.013
 4889SOL     OW16673   0.322   7.025  10.383
 4889SOL    HW116674   0.254   6.987  10.326
 4889SOL    HW216675   0.375   7.078  10.321
 4890SOL     OW16676   1.471   7.088  10.664
 4890SOL    HW116677   1.527   7.168  10.672
 4890SOL    HW216678   1.405   7.103  10.732
 4891SOL     OW16679   0.471   5.952  10.865
 4891SOL    HW116680   0.549   5.915  10.820
 4891SOL    HW216681   0.397   5.918  10.814
 4892SOL     OW16682   1.613   6.037  10.048
 4892SOL    HW116683   1.548   6.065   9.982
 4892SOL    HW216684   1.594   6.097  10.121
 4893SOL     OW16685   0.217   7.257   9.775
 4893SOL    HW116686   0.224   7.333   9.836
 4893SOL    HW216687   0.281   7.282   9.707
 4894SOL     OW16688   0.215   6.989   9.826
 4894SOL    HW116689   0.230   7.084   9.809
 4894SOL    HW216690   0.155   6.993   9.902
 4895SOL     OW16691   0.258   6.701  10.216
 4895SOL    HW116692   0.240   6.616  10.258
 4895SOL    HW216693   0.191   6.759  10.256
 4896SOL     OW16694   0.615   7.384  10.729
 4896SOL    HW116695   0.538   7.367  10.786
 4896SOL    HW216696   0.635   7.478  10.748
 4897SOL     OW16697   0.586   6.576   9.425
 4897SOL    HW116698   0.629   6.634   9.359
 4897SOL    HW216699   0.627   6.609   9.507
 4898SOL     OW16700   1.603   5.695  10.788
 4898SOL    HW116701   1.589   5.782  10.750
 4898SOL    HW216702   1.563   5.702  10.875
 4899SOL     OW16703   0.126   6.217   9.868
 4899SOL    HW116704   0.076   6.135   9.880
 4899SOL    HW216705   0.102   6.270   9.946
 4900SOL     OW16706   1.841   7.339   9.649
 4900SOL    HW116707   1.909   7.326   9.718
 4900SOL    HW216708   1.856   7.432   9.626
 4901SOL     OW16709   0.056   7.184   9.435
 4901SOL    HW116710   0.032   7.091   9.450
 4901SOL    HW216711   0.060   7.219   9.525
 4902SOL     OW16712   1.681   6.491   9.915
 4902SOL    HW116713   1.751   6.460   9.855
 4902SOL    HW216714   1.641   6.561   9.862
 4903SOL     OW16715   1.643   6.714   9.752
 4903SOL    HW116716   1.735   6.710   9.723
 4903SOL    HW216717   1.648   6.780   9.824
 4904SOL     OW16718   0.127   6.307  10.903
 4904SOL    HW116719   0.218   6.337  10.916
 4904SOL    HW216720   0.077   6.390  10.894
 4905SOL     OW16721   0.589   6.959  10.079
 4905SOL    HW116722   0.542   6.876  10.058
 4905SOL    HW216723   0.613   6.989   9.990
 4906SOL     OW16724   1.300   6.814  10.734
 4906SOL    HW116725   1.321   6.749  10.665
 4906SOL    HW216726   1.353   6.784  10.810
 4907SOL     OW16727   0.834   5.574   9.818
 4907SOL    HW116728   0.858   5.669   9.815
 4907SOL    HW216729   0.737   5.580   9.827
 4908SOL     OW16730   0.170   6.548  10.587
 4908SOL    HW116731   0.258   6.507  10.572
 4908SOL    HW216732   0.110   6.477  10.563
 4909SOL     OW16733   1.556   6.543   9.492
 4909SOL    HW116734   1.474   6.497   9.520
 4909SOL    HW216735   1.587   6.581   9.576
 4910SOL     OW16736   1.232   7.383  10.911
 4910SOL    HW116737   1.209   7.447  10.843
 4910SOL    HW216738   1.228   7.299  10.862
 4911SOL     OW16739   0.318   5.822   0.047
 4911SOL    HW116740   0.376   5.894   0.017
 4911SOL    HW216741   0.233   5.867   0.065
 4912SOL     OW16742   1.463   7.002  10.268
 4912SOL    HW116743   1.397   7.020  10.337
 4912SOL    HW216744   1.439   6.911  10.241
 4913SOL     OW16745   1.653   7.320   9.891
 4913SOL    HW116746   1.635   7.282   9.804
 4913SOL    HW216747   1.611   7.254   9.950
 4914SOL     OW16748   0.585   6.320   9.584
 4914SOL    HW116749   0.611   6.395   9.528
 4914SOL    HW216750   0.528   6.365   9.648
 4915SOL     OW16751   1.282   5.917  10.223
 4915SOL    HW116752   1.190   5.886  10.236
 4915SOL    HW216753   1.327   5.878  10.299
 4916SOL     OW16754   1.579   7.228   9.622
 4916SOL    HW116755   1.669   7.262   9.620
 4916SOL    HW216756   1.563   7.216   9.527
 4917SOL     OW16757   0.778   6.219  10.782
 4917SOL    HW116758   0.749   6.182  10.868
 4917SOL    HW216759   0.769   6.141  10.723
 4918SOL     OW16760   0.951   6.455  10.888
 4918SOL    HW116761   0.994   6.381  10.841
 4918SOL    HW216762   0.898   6.497  10.818
 4919SOL     OW16763   1.043   6.270   9.722
 4919SOL    HW116764   1.064   6.284   9.816
 4919SOL    HW216765   0.958   6.221   9.728
 4920SOL     OW16766   0.092   6.388  10.070
 4920SOL    HW116767   0.170   6.377  10.127
 4920SOL    HW216768   0.053   6.468  10.110
 4921SOL     OW16769   0.121   7.411  10.898
 4921SOL    HW116770   0.114   7.377  10.989
 4921SOL    HW216771   0.040   7.381  10.857
 4922SOL     OW16772   0.889   5.987   9.504
 4922SOL    HW116773   0.935   6.038   9.435
 4922SOL    HW216774   0.898   5.898   9.470
 4923SOL     OW16775   1.360   6.733   9.888
 4923SOL    HW116776   1.429   6.726   9.821
 4923SOL    HW216777   1.300   6.796   9.844
 4924SOL     OW16778   0.586   5.792  10.198
 4924SOL    HW116779   0.584   5.785  10.296
 4924SOL    HW216780   0.582   5.887  10.186
 4925SOL     OW16781   0.975   7.018   9.791
 4925SOL    HW116782   0.940   7.081   9.724
 4925SOL    HW216783   0.951   7.067   9.872
 4926SOL     OW16784   0.385   7.395  10.157
 4926SOL    HW116785   0.419   7.305  10.173
 4926SOL    HW216786   0.460   7.449  10.184
 4927SOL     OW16787   1.808   6.627  10.175
 4927SOL    HW116788   1.751   6.618  10.098
 4927SOL    HW216789   1.744   6.635  10.248
 4928SOL     OW16790   1.234   7.145  10.799
 4928SOL    HW116791   1.213   7.076  10.863
 4928SOL    HW216792   1.172   7.122  10.728
 4929SOL     OW16793   0.327   6.530   9.562
 4929SOL    HW116794   0.396   6.547   9.496
 4929SOL    HW216795   0.292   6.444   9.536
 4930SOL     OW16796   1.472   6.347  10.042
 4930SOL    HW116797   1.483   6.309  10.130
 4930SOL    HW216798   1.557   6.390  10.026
 4931SOL     OW16799   0.448   6.864  11.061
 4931SOL    HW116800   0.427   6.872  10.966
 4931SOL    HW216801   0.405   6.782  11.086
 4932SOL     OW16802   1.095   7.362   9.548
 4932SOL    HW116803   1.023   7.311   9.590
 4932SOL    HW216804   1.114   7.310   9.468
 4933SOL     OW16805   0.206   5.872  10.772
 4933SOL    HW116806   0.134   5.934  10.788
 4933SOL    HW216807   0.188   5.805  10.840
 4934SOL     OW16808   1.617   6.951   9.400
 4934SOL    HW116809   1.576   7.035   9.373
 4934SOL    HW216810   1.555   6.883   9.366
 4935SOL     OW16811   0.458   7.318   9.635
 4935SOL    HW116812   0.510   7.370   9.700
 4935SOL    HW216813   0.528   7.278   9.582
 4936SOL     OW16814   1.397   5.702   9.752
 4936SOL    HW116815   1.388   5.656   9.667
 4936SOL    HW216816   1.494   5.713   9.759
 4937SOL     OW16817   0.238   7.373  10.536
 4937SOL    HW116818   0.305   7.312  10.568
 4937SOL    HW216819   0.219   7.342  10.446
 4938SOL     OW16820   0.958   7.292  10.246
 4938SOL    HW116821   1.042   7.247  10.232
 4938SOL    HW216822   0.907   7.257  10.169
 4939SOL     OW16823   0.385   6.308   9.790
 4939SOL    HW116824   0.403   6.232   9.734
 4939SOL    HW216825   0.296   6.289   9.826
 4940SOL     OW16826   0.627   5.717   9.418
 4940SOL    HW116827   0.698   5.654   9.433
 4940SOL    HW216828   0.577   5.673   9.346
 4941SOL     OW16829   0.758   5.821  11.033
 4941SOL    HW116830   0.838   5.813  11.086
 4941SOL    HW216831   0.702   5.881  11.085
 4942SOL     OW16832   0.873   7.121  10.516
 4942SOL    HW116833   0.872   7.098  10.421
 4942SOL    HW216834   0.945   7.066  10.552
 4943SOL     OW16835   1.331   6.176  10.744
 4943SOL    HW116836   1.370   6.152  10.829
 4943SOL    HW216837   1.374   6.260  10.723
 4944SOL     OW16838   0.840   6.988  10.257
 4944SOL    HW116839   0.928   6.976  10.215
 4944SOL    HW216840   0.787   7.015  10.181
 4945SOL     OW16841   0.955   6.108  10.225
 4945SOL    HW116842   0.920   6.087  10.136
 4945SOL    HW216843   0.971   6.018  10.260
 4946SOL     OW16844   0.571   5.620   9.810
 4946SOL    HW116845   0.490   5.626   9.863
 4946SOL    HW216846   0.567   5.702   9.756
 4947SOL     OW16847   1.443   6.761   9.340
 4947SOL    HW116848   1.471   6.687   9.398
 4947SOL    HW216849   1.358   6.788   9.378
 4948SOL     OW16850   0.287   5.649   9.513
 4948SOL    HW116851   0.332   5.697   9.442
 4948SOL    HW216852   0.354   5.585   9.543
 4949SOL     OW16853   0.930   5.838   9.803
 4949SOL    HW116854   0.921   5.889   9.721
 4949SOL    HW216855   1.025   5.844   9.819
 4950SOL     OW16856   1.076   6.259  10.753
 4950SOL    HW116857   1.021   6.180  10.738
 4950SOL    HW216858   1.166   6.222  10.752
 4951SOL     OW16859   1.211   7.172  10.118
 4951SOL    HW116860   1.211   7.224  10.035
 4951SOL    HW216861   1.294   7.198  10.159
 4952SOL     OW16862   0.457   6.728  10.039
 4952SOL    HW116863   0.381   6.720  10.100
 4952SOL    HW216864   0.417   6.705   9.952
 4953SOL     OW16865   1.257   7.396   9.922
 4953SOL    HW116866   1.297   7.469   9.871
 4953SOL    HW216867   1.197   7.443   9.983
 4954SOL     OW16868   1.064   6.121   9.327
 4954SOL    HW116869   1.017   6.205   9.313
 4954SOL    HW216870   1.132   6.140   9.394
 4955SOL     OW16871   0.083   6.179  10.670
 4955SOL    HW116872   0.177   6.159  10.655
 4955SOL    HW216873   0.086   6.227  10.755
 4956SOL     OW16874   0.579   5.773  10.462
 4956SOL    HW116875   0.617   5.714  10.527
 4956SOL    HW216876   0.494   5.797  10.503
 4957SOL     OW16877   0.872   6.042   9.980
 4957SOL    HW116878   0.828   6.095   9.911
 4957SOL    HW216879   0.896   5.961   9.933
 4958SOL     OW16880   1.025   5.635  10.059
 4958SOL    HW116881   0.966   5.617   9.985
 4958SOL    HW216882   0.998   5.570  10.125
 4959SOL     OW16883   1.419   6.753  10.193
 4959SOL    HW116884   1.344   6.694  10.212
 4959SOL    HW216885   1.423   6.749  10.096
 4960SOL     OW16886   1.489   6.168  10.276
 4960SOL    HW116887   1.424   6.098  10.289
 4960SOL    HW216888   1.537   6.170  10.360
 4961SOL     OW16889   1.836   6.412   9.704
 4961SOL    HW116890   1.892   6.352   9.759
 4961SOL    HW216891   1.818   6.352   9.629
 4962SOL     OW16892   0.487   7.002   9.422
 4962SOL    HW116893   0.426   6.976   9.493
 4962SOL    HW216894   0.449   6.960   9.344
 4963SOL     OW16895   1.675   6.872   9.973
 4963SOL    HW116896   1.771   6.886   9.973
 4963SOL    HW216897   1.637   6.959   9.992
 4964SOL     OW16898   1.417   6.177   9.375
 4964SOL    HW116899   1.362   6.149   9.451
 4964SOL    HW216900   1.503   6.139   9.398
 4965SOL     OW16901   0.527   5.833   9.645
 4965SOL    HW116902   0.567   5.786   9.568
 4965SOL    HW216903   0.512   5.919   9.602
 4966SOL     OW16904   1.754   6.810  10.870
 4966SOL    HW116905   1.848   6.796  10.888
 4966SOL    HW216906   1.743   6.902  10.898
 4967SOL     OW16907   1.043   6.971  10.694
 4967SOL    HW116908   0.959   6.925  10.716
 4967SOL    HW216909   1.107   6.899  10.693
 4968SOL     OW16910   1.113   6.820  10.418
 4968SOL    HW116911   1.020   6.813  10.439
 4968SOL    HW216912   1.111   6.860  10.329
 4969SOL     OW16913   1.620   6.687  10.376
 4969SOL    HW116914   1.628   6.747  10.453
 4969SOL    HW216915   1.552   6.733  10.324
 4970SOL     OW16916   0.920   5.663  10.709
 4970SOL    HW116917   0.935   5.662  10.613
 4970SOL    HW216918   0.984   5.730  10.737
 4971SOL     OW16919   0.713   6.642   9.669
 4971SOL    HW116920   0.714   6.635   9.766
 4971SOL    HW216921   0.794   6.592   9.644
 4972SOL     OW16922   0.400   6.410  10.573
 4972SOL    HW116923   0.470   6.417  10.640
 4972SOL    HW216924   0.379   6.315  10.576
 4973SOL     OW16925   1.280   5.989  10.554
 4973SOL    HW116926   1.285   6.054  10.627
 4973SOL    HW216927   1.184   5.983  10.540
 4974SOL     OW16928   0.043   7.178  10.683
 4974SOL    HW116929   0.014   7.241  10.617
 4974SOL    HW216930   0.140   7.180  10.674
 4975SOL     OW16931   0.361   6.679   9.795
 4975SOL    HW116932   0.391   6.753   9.742
 4975SOL    HW216933   0.350   6.607   9.731
 4976SOL     OW16934   0.545   6.135  10.152
 4976SOL    HW116935   0.577   6.195  10.081
 4976SOL    HW216936   0.606   6.156  10.225
 4977SOL     OW16937   1.221   6.919   9.710
 4977SOL    HW116938   1.264   7.000   9.743
 4977SOL    HW216939   1.130   6.932   9.740
 4978SOL     OW16940   1.286   7.044  10.471
 4978SOL    HW116941   1.344   7.045  10.549
 4978SOL    HW216942   1.229   6.967  10.485
 4979SOL     OW16943   1.590   6.209   9.785
 4979SOL    HW116944   1.546   6.270   9.847
 4979SOL    HW216945   1.621   6.269   9.716
 4980SOL     OW16946   0.330   7.087  10.633
 4980SOL    HW116947   0.322   7.054  10.541
 4980SOL    HW216948   0.424   7.109  10.636
 4981SOL     OW16949   0.421   6.304  10.914
 4981SOL    HW116950   0.484   6.348  10.853
 4981SOL    HW216951   0.447   6.212  10.907
 4982SOL     OW16952   1.611   6.339  10.984
 4982SOL    HW116953   1.553   6.400  11.030
 4982SOL    HW216954   1.659   6.399  10.924
 4983SOL     OW16955   0.569   6.476  10.333
 4983SOL    HW116956   0.607   6.565  10.327
 4983SOL    HW216957   0.530   6.475  10.422
 4984SOL     OW16958   1.332   6.430  10.345
 4984SOL    HW116959   1.251   6.403  10.299
 4984SOL    HW216960   1.388   6.353  10.335
 4985SOL     OW16961   1.228   6.098   9.563
 4985SOL    HW116962   1.240   6.026   9.629
 4985SOL    HW216963   1.170   6.158   9.612
 4986SOL     OW16964   0.306   5.789  10.530
 4986SOL    HW116965   0.259   5.828  10.607
 4986SOL    HW216966   0.284   5.694  10.540
 4987SOL     OW16967   0.066   6.897  10.601
 4987SOL    HW116968   0.123   6.844  10.660
 4987SOL    HW216969   0.068   6.985  10.641
 4988SOL     OW16970   0.731   6.222  10.343
 4988SOL    HW116971   0.819   6.196  10.308
 4988SOL    HW216972   0.719   6.313  10.312
 4989SOL     OW16973   0.318   5.654   9.922
 4989SOL    HW116974   0.254   5.715   9.963
 4989SOL    HW216975   0.341   5.600  10.002
 4990SOL     OW16976   1.589   5.963   9.660
 4990SOL    HW116977   1.626   5.892   9.715
 4990SOL    HW216978   1.584   6.039   9.722
 4991SOL     OW16979   1.062   6.347  10.281
 4991SOL    HW116980   1.033   6.367  10.371
 4991SOL    HW216981   1.038   6.252  10.273
 4992SOL     OW16982   0.987   7.132  10.967
 4992SOL    HW116983   0.966   7.201  10.901
 4992SOL    HW216984   0.962   7.052  10.919
 4993SOL     OW16985   1.856   7.071  10.906
 4993SOL    HW116986   1.875   7.106  10.817
 4993SOL    HW216987   1.935   7.098  10.956
 4994SOL     OW16988   0.375   6.499  11.080
 4994SOL    HW116989   0.460   6.503   0.024
 4994SOL    HW216990   0.389   6.420  11.022
 4995SOL     OW16991   1.506   5.836   9.437
 4995SOL    HW116992   1.441   5.771   9.466
 4995SOL    HW216993   1.535   5.880   9.520
 4996SOL     OW16994   1.298   6.414   9.342
 4996SOL    HW116995   1.351   6.332   9.348
 4996SOL    HW216996   1.318   6.443   9.250
 4997SOL     OW16997   1.079   6.935  10.167
 4997SOL    HW116998   1.077   6.872  10.092
 4997SOL    HW216999   1.130   7.011  10.133
 4998SOL     OW17000   0.284   6.407  10.276
 4998SOL    HW117001   0.377   6.436  10.268
 4998SOL    HW217002   0.294   6.323  10.323
 4999SOL     OW17003   0.327   6.112  10.308
 4999SOL    HW117004   0.299   6.022  10.286
 4999SOL    HW217005   0.405   6.124  10.250
 5000SOL     OW17006   1.159   5.794  10.782
 5000SOL    HW117007   1.172   5.867  10.842
 5000SOL    HW217008   1.115   5.839  10.707
 5001SOL     OW17009  11.083   6.920   9.507
 5001SOL    HW117010  10.988   6.925   9.492
 5001SOL    HW217011  11.091   6.832   9.550
 5002SOL     OW17012   0.143   7.378  10.269
 5002SOL    HW117013   0.107   7.307  10.213
 5002SOL    HW217014   0.228   7.394  10.224
 5003SOL     OW17015   0.508   7.163  10.235
 5003SOL    HW117016   0.594   7.204  10.250
 5003SOL    HW217017   0.533   7.087  10.177
 5004SOL     OW17018   0.956   6.379  10.540
 5004SOL    HW117019   1.018   6.338  10.604
 5004SOL    HW217020   0.874   6.333  10.563
 5005SOL     OW17021  11.097   6.118  10.411
 5005SOL    HW117022   0.083   6.094  10.378
 5005SOL    HW217023   0.016   6.138  10.504
 5006SOL     OW17024   0.788   6.156   9.700
 5006SOL    HW117025   0.808   6.099   9.623
 5006SOL    HW217026   0.717   6.213   9.667
 5007SOL     OW17027   1.650   6.199  10.508
 5007SOL    HW117028   1.613   6.121  10.551
 5007SOL    HW217029   1.736   6.169  10.475
 5008SOL     OW17030   0.258   7.146  11.046
 5008SOL    HW117031   0.192   7.167   0.013
 5008SOL    HW217032   0.287   7.059  11.074
 5009SOL     OW17033   0.659   6.066  10.561
 5009SOL    HW117034   0.720   5.991  10.555
 5009SOL    HW217035   0.686   6.121  10.485
 5010SOL     OW17036   0.915   7.275  10.747
 5010SOL    HW117037   0.892   7.244  10.657
 5010SOL    HW217038   0.903   7.372  10.740
 5011SOL     OW17039   0.456   6.071   9.525
 5011SOL    HW117040   0.515   6.147   9.512
 5011SOL    HW217041   0.371   6.111   9.501
 5012SOL     OW17042   0.187   6.721  10.785
 5012SOL    HW117043   0.173   6.670  10.868
 5012SOL    HW217044   0.186   6.651  10.716
 5013SOL     OW17045   1.316   6.631  10.536
 5013SOL    HW117046   1.330   6.561  10.469
 5013SOL    HW217047   1.242   6.681  10.498
 5014SOL     OW17048   1.315   6.448   9.603
 5014SOL    HW117049   1.230   6.426   9.644
 5014SOL    HW217050   1.297   6.439   9.507
 5015SOL     OW17051   1.762   7.338  10.440
 5015SOL    HW117052   1.831   7.360  10.374
 5015SOL    HW217053   1.752   7.241  10.427
 5016SOL     OW17054   1.239   7.312  10.448
 5016SOL    HW117055   1.328   7.333  10.415
 5016SOL    HW217056   1.243   7.215  10.456
 5017SOL     OW17057   0.083   6.862  10.332
 5017SOL    HW117058   0.093   6.884  10.427
 5017SOL    HW217059   0.003   6.807  10.335
 5018SOL     OW17060   1.677   5.730   9.795
 5018SOL    HW117061   1.758   5.717   9.744
 5018SOL    HW217062   1.673   5.649   9.849
 5019SOL     OW17063   1.362   7.167   9.796
 5019SOL    HW117064   1.423   7.181   9.721
 5019SOL    HW217065   1.320   7.254   9.807
 5020SOL     OW17066   1.250   6.501   9.987
 5020SOL    HW117067   1.330   6.450  10.005
 5020SOL    HW217068   1.287   6.579   9.942
 5021SOL     OW17069   0.808   6.848  10.753
 5021SOL    HW117070   0.769   6.888  10.834
 5021SOL    HW217071   0.734   6.856  10.691
 5022SOL     OW17072   0.665   7.204   9.466
 5022SOL    HW117073   0.678   7.214   9.370
 5022SOL    HW217074   0.612   7.121   9.467
 5023SOL     OW17075   1.621   7.303  10.682
 5023SOL    HW117076   1.672   7.323  10.602
 5023SOL    HW217077   1.599   7.391  10.717
 5024SOL     OW17078   1.845   5.758  10.270
 5024SOL    HW117079   1.864   5.667  10.243
 5024SOL    HW217080   1.754   5.774  10.236
 5025SOL     OW17081   0.251   5.900  10.013
 5025SOL    HW117082   0.157   5.929  10.006
 5025SOL    HW217083   0.261   5.892  10.110
 5026SOL     OW17084   1.192   7.214   9.339
 5026SOL    HW117085   1.195   7.117   9.347
 5026SOL    HW217086   1.153   7.228   9.250
 5027SOL     OW17087   0.800   6.576  10.702
 5027SOL    HW117088   0.843   6.556  10.617
 5027SOL    HW217089   0.828   6.667  10.721
 5028SOL     OW17090   0.924   6.505   9.587
 5028SOL    HW117091   1.000   6.543   9.537
 5028SOL    HW217092   0.962   6.426   9.629
 5029SOL     OW17093   1.542   7.205   9.340
 5029SOL    HW117094   1.448   7.227   9.337
 5029SOL    HW217095   1.567   7.214   9.246
 5030SOL     OW17096   0.394   6.885  10.808
 5030SOL    HW117097   0.370   6.957  10.747
 5030SOL    HW217098   0.322   6.821  10.794
 5031SOL     OW17099   1.615   6.884  10.577
 5031SOL    HW117100   1.661   6.857  10.658
 5031SOL    HW217101   1.555   6.954  10.611
 5032SOL     OW17102   1.039   6.696  10.025
 5032SOL    HW117103   0.962   6.652  10.065
 5032SOL    HW217104   1.098   6.620  10.009
 5033SOL     OW17105   1.035   5.816  10.273
 5033SOL    HW117106   1.019   5.760  10.195
 5033SOL    HW217107   1.014   5.758  10.347
 5034SOL     OW17108   0.578   7.018   9.799
 5034SOL    HW117109   0.660   7.006   9.749
 5034SOL    HW217110   0.572   7.114   9.803
 5035SOL     OW17111   1.700   5.947  10.688
 5035SOL    HW117112   1.740   6.032  10.671
 5035SOL    HW217113   1.755   5.886  10.633
 5036SOL     OW17114   0.242   6.931   9.571
 5036SOL    HW117115   0.146   6.947   9.561
 5036SOL    HW217116   0.253   6.946   9.668
 5037SOL     OW17117   0.141   6.608  11.026
 5037SOL    HW117118   0.071   6.580  11.086
 5037SOL    HW217119   0.221   6.563  11.060
 5038SOL     OW17120   0.683   5.773  10.783
 5038SOL    HW117121   0.770   5.764  10.738
 5038SOL    HW217122   0.709   5.791  10.875
 5039SOL     OW17123   0.094   5.922   9.355
 5039SOL    HW117124   0.001   5.914   9.330
 5039SOL    HW217125   0.120   5.998   9.300
 5040SOL     OW17126   1.442   6.427  10.711
 5040SOL    HW117127   1.386   6.495  10.672
 5040SOL    HW217128   1.531   6.462  10.692
 5041SOL     OW17129   0.087   5.770   9.625
 5041SOL    HW117130   0.063   5.834   9.558
 5041SOL    HW217131   0.158   5.719   9.580
 5042SOL     OW17132   1.210   6.926   9.429
 5042SOL    HW117133   1.125   6.882   9.433
 5042SOL    HW217134   1.230   6.938   9.524
 5043SOL     OW17135   0.599   6.409  10.743
 5043SOL    HW117136   0.663   6.483  10.738
 5043SOL    HW217137   0.663   6.334  10.749
 5044SOL     OW17138   1.522   7.335  10.299
 5044SOL    HW117139   1.554   7.373  10.216
 5044SOL    HW217140   1.601   7.334  10.355
 5045SOL     OW17141   0.717   6.127  11.021
 5045SOL    HW117142   0.741   6.208  11.071
 5045SOL    HW217143   0.797   6.074  11.026
 5046SOL     OW17144   0.385   7.313  10.875
 5046SOL    HW117145   0.306   7.367  10.857
 5046SOL    HW217146   0.346   7.248  10.938
 5047SOL     OW17147   1.684   6.480  10.569
 5047SOL    HW117148   1.666   6.388  10.543
 5047SOL    HW217149   1.646   6.532  10.497
 5048SOL     OW17150   1.210   5.917   9.779
 5048SOL    HW117151   1.274   5.845   9.774
 5048SOL    HW217152   1.241   5.967   9.858
 5049SOL     OW17153   0.610   6.319   9.951
 5049SOL    HW117154   0.643   6.410   9.957
 5049SOL    HW217155   0.531   6.331   9.894
 5050SOL     OW17156   1.766   5.923  10.943
 5050SOL    HW117157   1.728   5.927  10.853
 5050SOL    HW217158   1.688   5.909  10.998
 5051SOL     OW17159   1.747   6.529  10.826
 5051SOL    HW117160   1.742   6.626  10.840
 5051SOL    HW217161   1.746   6.522  10.729
 5052SOL     OW17162   0.849   6.952   9.341
 5052SOL    HW117163   0.826   6.968   9.434
 5052SOL    HW217164   0.879   7.038   9.308
 5053SOL     OW17165   0.691   7.412  10.274
 5053SOL    HW117166   0.670   7.497  10.232
 5053SOL    HW217167   0.752   7.371  10.211
 5054SOL     OW17168   0.871   6.536  10.178
 5054SOL    HW117169   0.928   6.474  10.224
 5054SOL    HW217170   0.852   6.604  10.246
 5055SOL     OW17171   1.107   6.592   9.405
 5055SOL    HW117172   1.066   6.635   9.328
 5055SOL    HW217173   1.164   6.524   9.366
 5056SOL     OW17174   1.851   7.127  10.168
 5056SOL    HW117175   1.777   7.124  10.107
 5056SOL    HW217176   1.816   7.084  10.248
 5057SOL     OW17177   0.071   6.830   9.994
 5057SOL    HW117178   0.109   6.779  10.066
 5057SOL    HW217179   0.138   6.821   9.925
 5058SOL     OW17180   0.664   6.990  10.935
 5058SOL    HW117181   0.590   6.941  10.973
 5058SOL    HW217182   0.623   7.072  10.907
 5059SOL     OW17183   1.832   5.774  10.533
 5059SOL    HW117184   1.822   5.680  10.551
 5059SOL    HW217185   1.834   5.775  10.435
 5060SOL     OW17186   1.716   7.078  10.404
 5060SOL    HW117187   1.632   7.047  10.368
 5060SOL    HW217188   1.724   7.021  10.483
 5061SOL     OW17189   0.343   6.140  10.588
 5061SOL    HW117190   0.411   6.087  10.632
 5061SOL    HW217191   0.348   6.108  10.496
 5062SOL     OW17192   1.429   5.816  10.433
 5062SOL    HW117193   1.462   5.751  10.495
 5062SOL    HW217194   1.371   5.873  10.489
 5063SOL     OW17195   0.989   5.574  10.451
 5063SOL    HW117196   0.948   5.500  10.404
 5063SOL    HW217197   1.081   5.541  10.462
 5064SOL     OW17198   0.783   6.911   9.616
 5064SOL    HW117199   0.752   6.820   9.630
 5064SOL    HW217200   0.855   6.918   9.681
 5065SOL     OW17201   0.600   7.134  10.599
 5065SOL    HW117202   0.605   7.223  10.638
 5065SOL    HW217203   0.686   7.130  10.554
 5066SOL     OW17204   1.330   5.613   9.475
 5066SOL    HW117205   1.335   5.547   9.405
 5066SOL    HW217206   1.242   5.591   9.514
 5067SOL     OW17207   1.281   6.058   9.991
 5067SOL    HW117208   1.221   6.135   9.994
 5067SOL    HW217209   1.271   6.019  10.081
 5068SOL     OW17210   1.596   5.800  10.186
 5068SOL    HW117211   1.514   5.802  10.238
 5068SOL    HW217212   1.587   5.876  10.126
 5069SOL     OW17213   0.046   6.673   9.602
 5069SOL    HW117214   0.142   6.679   9.601
 5069SOL    HW217215   0.033   6.576   9.610
 5070SOL     OW17216   0.885   7.222   9.633
 5070SOL    HW117217   0.805   7.214   9.578
 5070SOL    HW217218   0.867   7.300   9.689
 5071SOL     OW17219   0.241   8.102   0.122
 5071SOL    HW117220   0.158   8.075   0.165
 5071SOL    HW217221   0.221   8.094   0.028
 5072SOL     OW17222   0.231   7.741   1.004
 5072SOL    HW117223   0.263   7.717   1.094
 5072SOL    HW217224   0.184   7.661   0.978
 5073SOL     OW17225  11.097   7.826   0.644
 5073SOL    HW117226  11.038   7.851   0.716
 5073SOL    HW217227  11.062   7.738   0.617
 5074SOL     OW17228   0.570   8.748   1.195
 5074SOL    HW117229   0.485   8.743   1.150
 5074SOL    HW217230   0.571   8.841   1.225
 5075SOL     OW17231   1.539   8.977   0.715
 5075SOL    HW117232   1.500   8.950   0.801
 5075SOL    HW217233   1.463   8.975   0.653
 5076SOL     OW17234   1.125   8.139   0.709
 5076SOL    HW117235   1.165   8.223   0.680
 5076SOL    HW217236   1.088   8.163   0.795
 5077SOL     OW17237   1.780   8.054   0.222
 5077SOL    HW117238   1.727   8.084   0.147
 5077SOL    HW217239   1.722   7.989   0.265
 5078SOL     OW17240   0.734   8.606   1.026
 5078SOL    HW117241   0.677   8.653   1.090
 5078SOL    HW217242   0.778   8.683   0.985
 5079SOL     OW17243   0.878   8.196   1.792
 5079SOL    HW117244   0.866   8.256   1.867
 5079SOL    HW217245   0.911   8.255   1.721
 5080SOL     OW17246   0.687   8.440   0.629
 5080SOL    HW117247   0.759   8.432   0.694
 5080SOL    HW217248   0.620   8.491   0.677
 5081SOL     OW17249   0.699   8.614   1.812
 5081SOL    HW117250   0.754   8.693   1.834
 5081SOL    HW217251   0.620   8.655   1.774
 5082SOL     OW17252   0.325   8.873   1.073
 5082SOL    HW117253   0.251   8.830   1.027
 5082SOL    HW217254   0.364   8.927   1.003
 5083SOL     OW17255   1.468   8.944   1.371
 5083SOL    HW117256   1.528   9.021   1.383
 5083SOL    HW217257   1.403   8.959   1.443
 5084SOL     OW17258   0.451   7.846   1.527
 5084SOL    HW117259   0.531   7.790   1.517
 5084SOL    HW217260   0.380   7.783   1.508
 5085SOL     OW17261   1.592   7.903   0.732
 5085SOL    HW117262   1.504   7.921   0.696
 5085SOL    HW217263   1.592   7.963   0.808
 5086SOL     OW17264   0.204   9.129   0.461
 5086SOL    HW117265   0.217   9.208   0.517
 5086SOL    HW217266   0.270   9.145   0.392
 5087SOL     OW17267   1.124   8.801   1.652
 5087SOL    HW117268   1.174   8.800   1.734
 5087SOL    HW217269   1.083   8.712   1.656
 5088SOL     OW17270   0.233   8.858   0.519
 5088SOL    HW117271   0.217   8.954   0.511
 5088SOL    HW217272   0.168   8.833   0.588
 5089SOL     OW17273   0.271   8.560   0.917
 5089SOL    HW117274   0.256   8.473   0.957
 5089SOL    HW217275   0.200   8.614   0.957
 5090SOL     OW17276   0.611   9.255   1.401
 5090SOL    HW117277   0.539   9.227   1.460
 5090SOL    HW217278   0.633   9.343   1.435
 5091SOL     OW17279   0.602   8.424   0.138
 5091SOL    HW117280   0.632   8.499   0.086
 5091SOL    HW217281   0.635   8.447   0.227
 5092SOL     OW17282   1.605   7.545   1.492
 5092SOL    HW117283   1.609   7.625   1.437
 5092SOL    HW217284   1.618   7.581   1.580
 5093SOL     OW17285   0.127   8.091   0.549
 5093SOL    HW117286   0.115   7.995   0.558
 5093SOL    HW217287   0.109   8.124   0.640
 5094SOL     OW17288   1.847   9.185   0.366
 5094SOL    HW117289   1.916   9.168   0.433
 5094SOL    HW217290   1.866   9.278   0.342
 5095SOL     OW17291   0.061   9.053   0.119
 5095SOL    HW117292   0.044   8.964   0.153
 5095SOL    HW217293   0.090   9.102   0.197
 5096SOL     OW17294   1.706   8.344   0.624
 5096SOL    HW117295   1.791   8.328   0.580
 5096SOL    HW217296   1.669   8.413   0.567
 5097SOL     OW17297   1.640   8.558   0.457
 5097SOL    HW117298   1.702   8.593   0.391
 5097SOL    HW217299   1.641   8.627   0.525
 5098SOL     OW17300   0.124   8.203   1.591
 5098SOL    HW117301   0.164   8.265   1.654
 5098SOL    HW217302   0.053   8.260   1.553
 5099SOL     OW17303   0.611   8.845   0.753
 5099SOL    HW117304   0.575   8.754   0.763
 5099SOL    HW217305   0.592   8.862   0.658
 5100SOL     OW17306   1.272   8.669   1.421
 5100SOL    HW117307   1.315   8.603   1.365
 5100SOL    HW217308   1.322   8.663   1.504
 5101SOL     OW17309   0.826   7.456   0.476
 5101SOL    HW117310   0.857   7.548   0.476
 5101SOL    HW217311   0.729   7.467   0.486
 5102SOL     OW17312   0.174   8.443   1.253
 5102SOL    HW117313   0.257   8.394   1.237
 5102SOL    HW217314   0.107   8.383   1.216
 5103SOL     OW17315   1.548   8.422   0.215
 5103SOL    HW117316   1.466   8.373   0.235
 5103SOL    HW217317   1.578   8.447   0.304
 5104SOL     OW17318   1.189   9.245   1.622
 5104SOL    HW117319   1.183   9.309   1.550
 5104SOL    HW217320   1.207   9.163   1.573
 5105SOL     OW17321   0.322   7.689   1.787
 5105SOL    HW117322   0.386   7.740   1.838
 5105SOL    HW217323   0.239   7.709   1.835
 5106SOL     OW17324   1.463   8.878   0.964
 5106SOL    HW117325   1.401   8.895   1.037
 5106SOL    HW217326   1.437   8.787   0.936
 5107SOL     OW17327   1.651   9.190   0.590
 5107SOL    HW117328   1.659   9.144   0.505
 5107SOL    HW217329   1.616   9.120   0.647
 5108SOL     OW17330   0.581   8.167   0.254
 5108SOL    HW117331   0.590   8.255   0.214
 5108SOL    HW217332   0.524   8.181   0.332
 5109SOL     OW17333   1.263   7.788   0.923
 5109SOL    HW117334   1.177   7.750   0.950
 5109SOL    HW217335   1.325   7.743   0.983
 5110SOL     OW17336   1.565   9.097   0.314
 5110SOL    HW117337   1.657   9.128   0.315
 5110SOL    HW217338   1.555   9.075   0.220
 5111SOL     OW17339   0.795   8.072   1.465
 5111SOL    HW117340   0.784   8.033   1.554
 5111SOL    HW217341   0.761   8.001   1.407
 5112SOL     OW17342   1.398   7.934   1.666
 5112SOL    HW117343   1.400   7.988   1.747
 5112SOL    HW217344   1.449   7.855   1.692
 5113SOL     OW17345   0.968   8.338   1.578
 5113SOL    HW117346   1.007   8.257   1.538
 5113SOL    HW217347   0.914   8.371   1.503
 5114SOL     OW17348   0.983   7.851   1.231
 5114SOL    HW117349   0.890   7.859   1.257
 5114SOL    HW217350   0.980   7.794   1.154
 5115SOL     OW17351   1.040   8.130   0.407
 5115SOL    HW117352   1.059   8.149   0.501
 5115SOL    HW217353   0.954   8.083   0.413
 5116SOL     OW17354   0.092   8.246   0.775
 5116SOL    HW117355   0.171   8.230   0.830
 5116SOL    HW217356   0.052   8.321   0.821
 5117SOL     OW17357   0.133   9.251   1.563
 5117SOL    HW117358   0.139   9.255   1.661
 5117SOL    HW217359   0.051   9.298   1.545
 5118SOL     OW17360   0.883   7.832   0.204
 5118SOL    HW117361   0.936   7.883   0.139
 5118SOL    HW217362   0.899   7.740   0.175
 5119SOL     OW17363   1.724   8.037   1.834
 5119SOL    HW117364   1.688   8.113   1.784
 5119SOL    HW217365   1.744   7.975   1.761
 5120SOL     OW17366   1.355   8.605   0.579
 5120SOL    HW117367   1.433   8.587   0.524
 5120SOL    HW217368   1.306   8.666   0.522
 5121SOL     OW17369   0.590   7.652   0.895
 5121SOL    HW117370   0.591   7.669   0.992
 5121SOL    HW217371   0.564   7.738   0.859
 5122SOL     OW17372   0.986   8.878   0.493
 5122SOL    HW117373   0.954   8.950   0.435
 5122SOL    HW217374   0.985   8.920   0.580
 5123SOL     OW17375   0.369   9.262   0.836
 5123SOL    HW117376   0.395   9.169   0.849
 5123SOL    HW217377   0.449   9.306   0.870
 5124SOL     OW17378   1.817   8.493   0.888
 5124SOL    HW117379   1.758   8.488   0.811
 5124SOL    HW217380   1.755   8.482   0.962
 5125SOL     OW17381   1.227   9.012   1.494
 5125SOL    HW117382   1.200   8.946   1.560
 5125SOL    HW217383   1.176   8.983   1.417
 5126SOL     OW17384   0.324   8.409   0.265
 5126SOL    HW117385   0.389   8.426   0.195
 5126SOL    HW217386   0.288   8.323   0.239
 5127SOL     OW17387   1.475   8.200   0.702
 5127SOL    HW117388   1.472   8.171   0.794
 5127SOL    HW217389   1.561   8.245   0.695
 5128SOL     OW17390   0.458   8.717   1.733
 5128SOL    HW117391   0.431   8.722   1.638
 5128SOL    HW217392   0.375   8.738   1.778
 5129SOL     OW17393   1.095   9.221   0.213
 5129SOL    HW117394   1.046   9.167   0.279
 5129SOL    HW217395   1.123   9.153   0.149
 5130SOL     OW17396   0.185   7.720   1.492
 5130SOL    HW117397   0.102   7.769   1.483
 5130SOL    HW217398   0.189   7.702   1.587
 5131SOL     OW17399   1.628   8.793   0.098
 5131SOL    HW117400   1.588   8.878   0.072
 5131SOL    HW217401   1.571   8.729   0.052
 5132SOL     OW17402   0.448   9.187   0.305
 5132SOL    HW117403   0.491   9.223   0.384
 5132SOL    HW217404   0.519   9.189   0.240
 5133SOL     OW17405   1.393   7.572   0.445
 5133SOL    HW117406   1.394   7.516   0.365
 5133SOL    HW217407   1.487   7.589   0.460
 5134SOL     OW17408   0.254   9.249   1.232
 5134SOL    HW117409   0.299   9.176   1.276
 5134SOL    HW217410   0.234   9.212   1.145
 5135SOL     OW17411   0.956   9.146   0.883
 5135SOL    HW117412   1.040   9.099   0.890
 5135SOL    HW217413   0.912   9.096   0.811
 5136SOL     OW17414   0.414   8.147   0.474
 5136SOL    HW117415   0.427   8.050   0.473
 5136SOL    HW217416   0.321   8.152   0.499
 5137SOL     OW17417   1.539   7.701   1.729
 5137SOL    HW117418   1.533   7.705   1.828
 5137SOL    HW217419   1.489   7.620   1.712
 5138SOL     OW17420   0.606   7.555   0.092
 5138SOL    HW117421   0.694   7.525   0.118
 5138SOL    HW217422   0.595   7.520   0.003
 5139SOL     OW17423   0.744   7.717   1.737
 5139SOL    HW117424   0.830   7.671   1.741
 5139SOL    HW217425   0.704   7.692   1.822
 5140SOL     OW17426   0.877   8.997   1.190
 5140SOL    HW117427   0.870   8.961   1.100
 5140SOL    HW217428   0.933   8.931   1.234
 5141SOL     OW17429   1.329   8.051   1.437
 5141SOL    HW117430   1.367   8.014   1.519
 5141SOL    HW217431   1.387   8.127   1.418
 5142SOL     OW17432   0.832   8.846   0.947
 5142SOL    HW117433   0.920   8.838   0.906
 5142SOL    HW217434   0.774   8.853   0.870
 5143SOL     OW17435   0.952   7.964   0.899
 5143SOL    HW117436   0.932   7.947   0.804
 5143SOL    HW217437   0.975   7.875   0.928
 5144SOL     OW17438   0.564   7.508   0.499
 5144SOL    HW117439   0.481   7.508   0.549
 5144SOL    HW217440   0.553   7.586   0.441
 5145SOL     OW17441   1.441   8.618   0.010
 5145SOL    HW117442   1.478   8.553   0.072
 5145SOL    HW217443   1.362   8.650   0.056
 5146SOL     OW17444   0.265   7.483   0.188
 5146SOL    HW117445   0.300   7.548   0.124
 5146SOL    HW217446   0.344   7.434   0.215
 5147SOL     OW17447   0.942   7.703   0.456
 5147SOL    HW117448   0.929   7.750   0.372
 5147SOL    HW217449   1.037   7.719   0.473
 5148SOL     OW17450   1.075   8.123   1.464
 5148SOL    HW117451   1.031   8.037   1.466
 5148SOL    HW217452   1.169   8.099   1.463
 5149SOL     OW17453   1.230   9.036   0.800
 5149SOL    HW117454   1.235   9.105   0.730
 5149SOL    HW217455   1.309   9.055   0.852
 5150SOL     OW17456   0.474   8.586   0.741
 5150SOL    HW117457   0.402   8.578   0.807
 5150SOL    HW217458   0.427   8.566   0.658
 5151SOL     OW17459   1.253   9.251   0.635
 5151SOL    HW117460   1.302   9.317   0.582
 5151SOL    HW217461   1.198   9.308   0.691
 5152SOL     OW17462   1.040   7.977   0.037
 5152SOL    HW117463   0.996   8.063   0.028
 5152SOL    HW217464   1.129   8.001   0.067
 5153SOL     OW17465   0.085   8.012   1.394
 5153SOL    HW117466   0.175   8.011   1.358
 5153SOL    HW217467   0.088   8.087   1.457
 5154SOL     OW17468   0.585   7.673   1.165
 5154SOL    HW117469   0.630   7.597   1.203
 5154SOL    HW217470   0.492   7.660   1.192
 5155SOL     OW17471   0.887   7.888   0.648
 5155SOL    HW117472   0.831   7.949   0.598
 5155SOL    HW217473   0.894   7.813   0.586
 5156SOL     OW17474   1.013   7.515   0.767
 5156SOL    HW117475   0.955   7.511   0.690
 5156SOL    HW217476   0.988   7.435   0.816
 5157SOL     OW17477   1.428   8.625   0.878
 5157SOL    HW117478   1.361   8.557   0.892
 5157SOL    HW217479   1.434   8.626   0.781
 5158SOL     OW17480   1.490   8.018   0.975
 5158SOL    HW117481   1.432   7.942   0.990
 5158SOL    HW217482   1.544   8.023   1.056
 5159SOL     OW17483   1.869   8.283   0.348
 5159SOL    HW117484   1.905   8.227   0.419
 5159SOL    HW217485   1.832   8.216   0.289
 5160SOL     OW17486   0.493   8.908   0.125
 5160SOL    HW117487   0.422   8.880   0.186
 5160SOL    HW217488   0.493   8.836   0.060
 5161SOL     OW17489   1.663   8.733   0.666
 5161SOL    HW117490   1.759   8.748   0.665
 5161SOL    HW217491   1.627   8.821   0.686
 5162SOL     OW17492   1.378   8.046   0.074
 5162SOL    HW117493   1.342   8.009   0.158
 5162SOL    HW217494   1.447   7.982   0.054
 5163SOL     OW17495   0.520   7.692   0.309
 5163SOL    HW117496   0.540   7.639   0.229
 5163SOL    HW217497   0.492   7.776   0.266
 5164SOL     OW17498   1.731   8.686   1.565
 5164SOL    HW117499   1.819   8.647   1.574
 5164SOL    HW217500   1.751   8.778   1.589
 5165SOL     OW17501   1.053   8.812   1.336
 5165SOL    HW117502   0.976   8.784   1.388
 5165SOL    HW217503   1.124   8.759   1.378
 5166SOL     OW17504   1.599   9.041   1.646
 5166SOL    HW117505   1.608   9.084   1.559
 5166SOL    HW217506   1.683   8.992   1.652
 5167SOL     OW17507   1.117   8.665   1.097
 5167SOL    HW117508   1.064   8.707   1.166
 5167SOL    HW217509   1.082   8.705   1.015
 5168SOL     OW17510   1.598   8.540   1.077
 5168SOL    HW117511   1.606   8.608   1.147
 5168SOL    HW217512   1.544   8.587   1.011
 5169SOL     OW17513   0.908   7.553   1.391
 5169SOL    HW117514   0.940   7.523   1.304
 5169SOL    HW217515   0.988   7.595   1.427
 5170SOL     OW17516   1.009   8.567   1.736
 5170SOL    HW117517   0.916   8.592   1.753
 5170SOL    HW217518   1.000   8.491   1.675
 5171SOL     OW17519   0.726   8.507   0.377
 5171SOL    HW117520   0.710   8.480   0.470
 5171SOL    HW217521   0.810   8.461   0.357
 5172SOL     OW17522   0.384   8.260   1.260
 5172SOL    HW117523   0.468   8.252   1.308
 5172SOL    HW217524   0.363   8.167   1.243
 5173SOL     OW17525   1.294   7.836   1.274
 5173SOL    HW117526   1.313   7.913   1.331
 5173SOL    HW217527   1.206   7.857   1.240
 5174SOL     OW17528   0.046   9.025   1.348
 5174SOL    HW117529   0.017   9.104   1.300
 5174SOL    HW217530   0.142   9.036   1.354
 5175SOL     OW17531   0.357   8.542   0.501
 5175SOL    HW117532   0.375   8.624   0.454
 5175SOL    HW217533   0.349   8.478   0.428
 5176SOL     OW17534   0.560   7.995   0.860
 5176SOL    HW117535   0.582   8.060   0.790
 5176SOL    HW217536   0.620   8.021   0.932
 5177SOL     OW17537   1.221   8.789   0.398
 5177SOL    HW117538   1.271   8.866   0.430
 5177SOL    HW217539   1.130   8.811   0.428
 5178SOL     OW17540   1.297   8.918   1.169
 5178SOL    HW117541   1.358   8.915   1.245
 5178SOL    HW217542   1.228   8.855   1.194
 5179SOL     OW17543   1.569   8.068   0.452
 5179SOL    HW117544   1.531   8.104   0.534
 5179SOL    HW217545   1.591   8.148   0.403
 5180SOL     OW17546   0.327   8.979   1.312
 5180SOL    HW117547   0.319   8.931   1.227
 5180SOL    HW217548   0.423   8.998   1.312
 5181SOL     OW17549   1.628   8.223   1.674
 5181SOL    HW117550   1.540   8.265   1.675
 5181SOL    HW217551   1.673   8.275   1.604
 5182SOL     OW17552   0.981   7.558   1.749
 5182SOL    HW117553   1.046   7.629   1.740
 5182SOL    HW217554   1.032   7.483   1.715
 5183SOL     OW17555   0.494   7.474   1.753
 5183SOL    HW117556   0.459   7.409   1.689
 5183SOL    HW217557   0.426   7.545   1.750
 5184SOL     OW17558   0.605   8.347   1.047
 5184SOL    HW117559   0.639   8.437   1.032
 5184SOL    HW217560   0.528   8.364   1.102
 5185SOL     OW17561   1.346   8.305   1.019
 5185SOL    HW117562   1.256   8.271   1.003
 5185SOL    HW217563   1.398   8.224   1.018
 5186SOL     OW17564   1.229   7.955   0.283
 5186SOL    HW117565   1.230   7.882   0.349
 5186SOL    HW217566   1.164   8.015   0.323
 5187SOL     OW17567   0.312   7.648   1.243
 5187SOL    HW117568   0.249   7.670   1.314
 5187SOL    HW217569   0.301   7.551   1.238
 5188SOL     OW17570   0.054   8.761   1.286
 5188SOL    HW117571   0.121   8.719   1.341
 5188SOL    HW217572   0.056   8.854   1.315
 5189SOL     OW17573   0.736   8.092   1.069
 5189SOL    HW117574   0.814   8.070   1.016
 5189SOL    HW217575   0.711   8.182   1.040
 5190SOL     OW17576   1.761   8.392   1.847
 5190SOL    HW117577   1.711   8.326   1.797
 5190SOL    HW217578   1.701   8.411   1.921
 5191SOL     OW17579   0.298   7.504   0.607
 5191SOL    HW117580   0.281   7.594   0.637
 5191SOL    HW217581   0.324   7.462   0.692
 5192SOL     OW17582   1.593   7.826   0.346
 5192SOL    HW117583   1.625   7.768   0.418
 5192SOL    HW217584   1.576   7.910   0.393
 5193SOL     OW17585   1.069   8.196   0.985
 5193SOL    HW117586   1.034   8.206   1.075
 5193SOL    HW217587   1.040   8.106   0.961
 5194SOL     OW17588   0.988   9.024   1.704
 5194SOL    HW117589   0.968   9.071   1.620
 5194SOL    HW217590   1.020   8.938   1.672
 5195SOL     OW17591   1.849   8.936   1.610
 5195SOL    HW117592   1.871   8.965   1.520
 5195SOL    HW217593   1.925   8.969   1.660
 5196SOL     OW17594   0.393   8.347   1.772
 5196SOL    HW117595   0.419   8.366   1.863
 5196SOL    HW217596   0.461   8.394   1.723
 5197SOL     OW17597   1.517   7.719   0.110
 5197SOL    HW117598   1.455   7.654   0.146
 5197SOL    HW217599   1.556   7.756   0.192
 5198SOL     OW17600   1.288   8.296   0.026
 5198SOL    HW117601   1.319   8.204   0.040
 5198SOL    HW217602   1.332   8.319  11.044
 5199SOL     OW17603   1.066   8.811   0.846
 5199SOL    HW117604   1.077   8.732   0.789
 5199SOL    HW217605   1.138   8.871   0.819
 5200SOL     OW17606   0.287   8.278   0.979
 5200SOL    HW117607   0.370   8.292   0.932
 5200SOL    HW217608   0.297   8.188   1.013
 5201SOL     OW17609   0.340   7.995   1.006
 5201SOL    HW117610   0.305   7.906   0.989
 5201SOL    HW217611   0.417   7.998   0.944
 5202SOL     OW17612   1.154   7.819   1.695
 5202SOL    HW117613   1.110   7.873   1.764
 5202SOL    HW217614   1.237   7.868   1.684
 5203SOL     OW17615   1.156   7.656   1.474
 5203SOL    HW117616   1.161   7.717   1.549
 5203SOL    HW217617   1.216   7.697   1.410
 5204SOL     OW17618  11.096   8.780   0.224
 5204SOL    HW117619  11.021   8.773   0.163
 5204SOL    HW217620   0.008   8.685   0.248
 5205SOL     OW17621   0.132   9.240   0.953
 5205SOL    HW117622   0.097   9.175   0.889
 5205SOL    HW217623   0.217   9.262   0.911
 5206SOL     OW17624   0.490   9.029   0.911
 5206SOL    HW117625   0.565   9.091   0.920
 5206SOL    HW217626   0.529   8.958   0.856
 5207SOL     OW17627   0.958   8.218   1.233
 5207SOL    HW117628   1.009   8.187   1.310
 5207SOL    HW217629   0.869   8.186   1.254
 5208SOL     OW17630   0.002   8.042   1.094
 5208SOL    HW117631   0.074   7.990   1.056
 5208SOL    HW217632   0.011   8.022   1.188
 5209SOL     OW17633   0.226   7.989   1.733
 5209SOL    HW117634   0.239   7.920   1.667
 5209SOL    HW217635   0.168   8.052   1.685
 5210SOL     OW17636   1.391   8.369   1.645
 5210SOL    HW117637   1.409   8.465   1.647
 5210SOL    HW217638   1.390   8.350   1.550
 5211SOL     OW17639   0.793   8.017   0.382
 5211SOL    HW117640   0.819   7.943   0.322
 5211SOL    HW217641   0.723   8.060   0.330
 5212SOL     OW17642   1.642   8.073   1.203
 5212SOL    HW117643   1.617   8.002   1.263
 5212SOL    HW217644   1.724   8.039   1.162
 5213SOL     OW17645   0.266   8.988   1.732
 5213SOL    HW117646   0.232   9.066   1.779
 5213SOL    HW217647   0.242   8.915   1.792
 5214SOL     OW17648   0.683   7.919   1.270
 5214SOL    HW117649   0.648   7.838   1.228
 5214SOL    HW217650   0.690   7.981   1.194
 5215SOL     OW17651   0.910   9.144   1.475
 5215SOL    HW117652   0.882   9.115   1.387
 5215SOL    HW217653   0.911   9.241   1.465
 5216SOL     OW17654   0.451   7.932   0.192
 5216SOL    HW117655   0.513   8.007   0.198
 5216SOL    HW217656   0.366   7.980   0.185
 5217SOL     OW17657   0.163   8.582   1.486
 5217SOL    HW117658   0.170   8.520   1.561
 5217SOL    HW217659   0.162   8.522   1.408
 5218SOL     OW17660   1.323   8.491   1.223
 5218SOL    HW117661   1.334   8.431   1.147
 5218SOL    HW217662   1.253   8.550   1.190
 5219SOL     OW17663   1.318   8.303   0.304
 5219SOL    HW117664   1.234   8.274   0.342
 5219SOL    HW217665   1.299   8.306   0.209
 5220SOL     OW17666   1.758   9.198   1.136
 5220SOL    HW117667   1.826   9.215   1.068
 5220SOL    HW217668   1.743   9.102   1.124
 5221SOL     OW17669   1.244   9.180   1.114
 5221SOL    HW117670   1.331   9.200   1.076
 5221SOL    HW217671   1.250   9.084   1.133
 5222SOL     OW17672   0.090   8.730   1.023
 5222SOL    HW117673   0.080   8.742   1.119
 5222SOL    HW217674   0.016   8.671   1.001
 5223SOL     OW17675   0.682   9.094   1.742
 5223SOL    HW117676   0.631   9.175   1.731
 5223SOL    HW217677   0.759   9.111   1.687
 5224SOL     OW17678   0.910   7.567   0.145
 5224SOL    HW117679   0.960   7.523   0.075
 5224SOL    HW217680   0.946   7.520   0.222
 5225SOL     OW17681   1.682   7.594   0.502
 5225SOL    HW117682   1.760   7.581   0.445
 5225SOL    HW217683   1.682   7.512   0.555
 5226SOL     OW17684   1.366   9.010   0.485
 5226SOL    HW117685   1.431   9.023   0.414
 5226SOL    HW217686   1.330   9.100   0.494
 5227SOL     OW17687   0.170   9.240   1.839
 5227SOL    HW117688   0.120   9.175   1.892
 5227SOL    HW217689   0.218   9.287   1.909
 5228SOL     OW17690   1.251   8.365   0.641
 5228SOL    HW117691   1.335   8.318   0.656
 5228SOL    HW217692   1.284   8.452   0.613
 5229SOL     OW17693   0.807   8.710   1.447
 5229SOL    HW117694   0.774   8.758   1.526
 5229SOL    HW217695   0.734   8.727   1.385
 5230SOL     OW17696   0.699   9.069   0.171
 5230SOL    HW117697   0.693   9.091   0.077
 5230SOL    HW217698   0.627   9.002   0.178
 5231SOL     OW17699   1.620   9.165   1.401
 5231SOL    HW117700   1.664   9.183   1.317
 5231SOL    HW217701   1.597   9.254   1.433
 5232SOL     OW17702   1.843   7.608   0.980
 5232SOL    HW117703   1.862   7.518   0.948
 5232SOL    HW217704   1.758   7.630   0.934
 5233SOL     OW17705   0.268   7.756   0.707
 5233SOL    HW117706   0.178   7.769   0.673
 5233SOL    HW217707   0.257   7.773   0.802
 5234SOL     OW17708   1.213   9.045   0.035
 5234SOL    HW117709   1.217   8.950   0.055
 5234SOL    HW217710   1.146   9.047  11.065
 5235SOL     OW17711   0.794   8.445   1.394
 5235SOL    HW117712   0.827   8.448   1.304
 5235SOL    HW217713   0.810   8.536   1.427
 5236SOL     OW17714   0.940   8.376   0.302
 5236SOL    HW117715   0.983   8.396   0.217
 5236SOL    HW217716   0.963   8.284   0.317
 5237SOL     OW17717   1.517   9.044   0.045
 5237SOL    HW117718   1.422   9.060   0.040
 5237SOL    HW217719   1.549   9.073  11.059
 5238SOL     OW17720   0.389   8.735   1.482
 5238SOL    HW117721   0.367   8.816   1.435
 5238SOL    HW217722   0.311   8.679   1.468
 5239SOL     OW17723   1.606   8.749   1.265
 5239SOL    HW117724   1.640   8.722   1.352
 5239SOL    HW217725   1.543   8.819   1.292
 5240SOL     OW17726   1.038   8.566   0.725
 5240SOL    HW117727   0.966   8.509   0.758
 5240SOL    HW217728   1.094   8.502   0.679
 5241SOL     OW17729   1.030   7.675   0.990
 5241SOL    HW117730   1.021   7.634   0.901
 5241SOL    HW217731   1.025   7.596   1.047
 5242SOL     OW17732   0.599   8.922   0.490
 5242SOL    HW117733   0.658   8.880   0.425
 5242SOL    HW217734   0.530   8.959   0.434
 5243SOL     OW17735   1.700   7.804   1.381
 5243SOL    HW117736   1.756   7.883   1.377
 5243SOL    HW217737   1.752   7.739   1.328
 5244SOL     OW17738   0.256   8.822   0.255
 5244SOL    HW117739   0.161   8.810   0.237
 5244SOL    HW217740   0.256   8.830   0.353
 5245SOL     OW17741   0.139   8.446   1.751
 5245SOL    HW117742   0.073   8.417   1.815
 5245SOL    HW217743   0.221   8.404   1.782
 5246SOL     OW17744   0.676   7.645   1.487
 5246SOL    HW117745   0.762   7.610   1.454
 5246SOL    HW217746   0.698   7.674   1.577
 5247SOL     OW17747   0.074   7.796   0.073
 5247SOL    HW117748  11.085   7.762   0.060
 5247SOL    HW217749   0.083   7.853  11.098
 5248SOL     OW17750   1.456   8.311   1.381
 5248SOL    HW117751   1.410   8.373   1.322
 5248SOL    HW217752   1.548   8.339   1.371
 5249SOL     OW17753   0.058   7.607   0.312
 5249SOL    HW117754   0.061   7.684   0.255
 5249SOL    HW217755   0.136   7.557   0.281
 5250SOL     OW17756   1.200   8.770   0.126
 5250SOL    HW117757   1.104   8.761   0.114
 5250SOL    HW217758   1.208   8.769   0.224
 5251SOL     OW17759   0.606   8.246   1.423
 5251SOL    HW117760   0.647   8.334   1.410
 5251SOL    HW217761   0.689   8.193   1.428
 5252SOL     OW17762   1.514   9.224   0.961
 5252SOL    HW117763   1.546   9.256   0.875
 5252SOL    HW217764   1.595   9.216   1.012
 5253SOL     OW17765   0.679   8.012   1.704
 5253SOL    HW117766   0.747   8.062   1.754
 5253SOL    HW217767   0.697   7.921   1.733
 5254SOL     OW17768   1.458   8.636   1.630
 5254SOL    HW117769   1.451   8.636   1.728
 5254SOL    HW217770   1.551   8.658   1.617
 5255SOL     OW17771   0.391   9.176   1.557
 5255SOL    HW117772   0.303   9.215   1.538
 5255SOL    HW217773   0.363   9.097   1.608
 5256SOL     OW17774   1.706   8.339   1.232
 5256SOL    HW117775   1.671   8.250   1.210
 5256SOL    HW217776   1.659   8.398   1.169
 5257SOL     OW17777   1.210   7.771   0.482
 5257SOL    HW117778   1.276   7.702   0.465
 5257SOL    HW217779   1.248   7.820   0.557
 5258SOL     OW17780   0.597   8.188   0.674
 5258SOL    HW117781   0.630   8.276   0.651
 5258SOL    HW217782   0.533   8.172   0.602
 5259SOL     OW17783   1.768   7.820   1.638
 5259SOL    HW117784   1.732   7.823   1.548
 5259SOL    HW217785   1.695   7.774   1.684
 5260SOL     OW17786   1.742   8.383   1.497
 5260SOL    HW117787   1.758   8.479   1.502
 5260SOL    HW217788   1.744   8.367   1.400
 5261SOL     OW17789   0.903   8.800   0.046
 5261SOL    HW117790   0.816   8.805   0.087
 5261SOL    HW217791   0.913   8.888   0.005
 5262SOL     OW17792   0.657   9.257   0.898
 5262SOL    HW117793   0.648   9.354   0.887
 5262SOL    HW217794   0.751   9.245   0.915
 5263SOL     OW17795   0.867   8.395   0.854
 5263SOL    HW117796   0.921   8.330   0.901
 5263SOL    HW217797   0.838   8.454   0.925
 5264SOL     OW17798   1.044   8.431   0.065
 5264SOL    HW117799   1.053   8.505   0.004
 5264SOL    HW217800   1.130   8.386   0.055
 5265SOL     OW17801   1.856   9.014   0.829
 5265SOL    HW117802   1.761   9.012   0.808
 5265SOL    HW217803   1.867   8.933   0.880
 5266SOL     OW17804   0.214   8.755   1.861
 5266SOL    HW117805   0.162   8.683   1.822
 5266SOL    HW217806   0.200   8.741   1.956
 5267SOL     OW17807   0.092   8.671   0.664
 5267SOL    HW117808   0.110   8.620   0.744
 5267SOL    HW217809   0.162   8.642   0.605
 5268SOL     OW17810   0.665   8.849   1.627
 5268SOL    HW117811   0.581   8.808   1.654
 5268SOL    HW217812   0.661   8.935   1.673
 5269SOL     OW17813   1.833   7.607   1.244
 5269SOL    HW117814   1.846   7.512   1.258
 5269SOL    HW217815   1.835   7.612   1.146
 5270SOL     OW17816   0.416   7.875   0.498
 5270SOL    HW117817   0.469   7.811   0.447
 5270SOL    HW217818   0.386   7.824   0.576
 5271SOL     OW17819   1.709   8.941   1.084
 5271SOL    HW117820   1.625   8.913   1.044
 5271SOL    HW217821   1.715   8.879   1.159
 5272SOL     OW17822   0.344   7.980   1.276
 5272SOL    HW117823   0.396   7.908   1.314
 5272SOL    HW217824   0.345   7.959   1.181
 5273SOL     OW17825   0.821   9.040   0.667
 5273SOL    HW117826   0.804   9.058   0.574
 5273SOL    HW217827   0.740   8.993   0.693
 5274SOL     OW17828   1.428   7.686   1.095
 5274SOL    HW117829   1.466   7.607   1.137
 5274SOL    HW217830   1.386   7.731   1.171
 5275SOL     OW17831   1.002   7.447   1.149
 5275SOL    HW117832   0.946   7.374   1.120
 5275SOL    HW217833   1.091   7.404   1.149
 5276SOL     OW17834   0.766   8.779   0.333
 5276SOL    HW117835   0.748   8.683   0.340
 5276SOL    HW217836   0.854   8.786   0.372
 5277SOL     OW17837   0.593   9.009   1.271
 5277SOL    HW117838   0.598   9.097   1.312
 5277SOL    HW217839   0.684   8.999   1.240
 5278SOL     OW17840   1.326   7.476   0.168
 5278SOL    HW117841   1.353   7.433   0.086
 5278SOL    HW217842   1.233   7.447   0.178
 5279SOL     OW17843   1.301   7.929   0.702
 5279SOL    HW117844   1.234   8.000   0.700
 5279SOL    HW217845   1.282   7.887   0.789
 5280SOL     OW17846   1.605   7.645   0.853
 5280SOL    HW117847   1.527   7.640   0.909
 5280SOL    HW217848   1.588   7.725   0.801
 5281SOL     OW17849   0.067   8.531   0.281
 5281SOL    HW117850   0.164   8.522   0.283
 5281SOL    HW217851   0.040   8.442   0.312
 5282SOL     OW17852   0.906   9.083   0.349
 5282SOL    HW117853   0.833   9.068   0.287
 5282SOL    HW217854   0.879   9.168   0.392
 5283SOL     OW17855   0.244   8.107   1.990
 5283SOL    HW117856   0.161   8.082   2.034
 5283SOL    HW217857   0.240   8.061   1.904
 5284SOL     OW17858   0.231   7.747   2.872
 5284SOL    HW117859   0.264   7.722   2.961
 5284SOL    HW217860   0.159   7.684   2.863
 5285SOL     OW17861  11.093   7.816   2.506
 5285SOL    HW117862  11.014   7.848   2.550
 5285SOL    HW217863  11.067   7.727   2.475
 5286SOL     OW17864   0.567   8.758   3.052
 5286SOL    HW117865   0.481   8.738   3.014
 5286SOL    HW217866   0.560   8.853   3.073
 5287SOL     OW17867   1.533   8.982   2.568
 5287SOL    HW117868   1.497   8.952   2.654
 5287SOL    HW217869   1.457   8.975   2.508
 5288SOL     OW17870   1.130   8.131   2.561
 5288SOL    HW117871   1.163   8.222   2.545
 5288SOL    HW217872   1.066   8.148   2.632
 5289SOL     OW17873   1.779   8.050   2.097
 5289SOL    HW117874   1.757   8.046   2.002
 5289SOL    HW217875   1.723   7.979   2.133
 5290SOL     OW17876   0.787   8.642   2.947
 5290SOL    HW117877   0.709   8.683   2.989
 5290SOL    HW217878   0.797   8.696   2.867
 5291SOL     OW17879   0.891   8.194   3.658
 5291SOL    HW117880   0.860   8.259   3.722
 5291SOL    HW217881   0.915   8.249   3.581
 5292SOL     OW17882   0.681   8.473   2.494
 5292SOL    HW117883   0.749   8.445   2.558
 5292SOL    HW217884   0.614   8.512   2.553
 5293SOL     OW17885   0.706   8.615   3.666
 5293SOL    HW117886   0.753   8.696   3.692
 5293SOL    HW217887   0.621   8.649   3.632
 5294SOL     OW17888   0.316   8.888   2.944
 5294SOL    HW117889   0.249   8.841   2.892
 5294SOL    HW217890   0.368   8.935   2.877
 5295SOL     OW17891   1.470   8.950   3.232
 5295SOL    HW117892   1.526   9.030   3.244
 5295SOL    HW217893   1.406   8.961   3.304
 5296SOL     OW17894   0.448   7.827   3.395
 5296SOL    HW117895   0.531   7.784   3.371
 5296SOL    HW217896   0.381   7.775   3.350
 5297SOL     OW17897   1.625   7.902   2.611
 5297SOL    HW117898   1.560   7.930   2.546
 5297SOL    HW217899   1.590   7.945   2.691
 5298SOL     OW17900   0.239   9.094   2.340
 5298SOL    HW117901   0.225   9.181   2.382
 5298SOL    HW217902   0.296   9.120   2.266
 5299SOL     OW17903   1.122   8.791   3.529
 5299SOL    HW117904   1.157   8.788   3.618
 5299SOL    HW217905   1.080   8.704   3.523
 5300SOL     OW17906   0.260   8.554   2.750
 5300SOL    HW117907   0.257   8.469   2.798
 5300SOL    HW217908   0.193   8.606   2.796
 5301SOL     OW17909   0.601   9.257   3.258
 5301SOL    HW117910   0.537   9.231   3.326
 5301SOL    HW217911   0.633   9.343   3.292
 5302SOL     OW17912   0.573   8.447   1.989
 5302SOL    HW117913   0.622   8.501   1.924
 5302SOL    HW217914   0.619   8.473   2.071
 5303SOL     OW17915   1.602   7.561   3.353
 5303SOL    HW117916   1.604   7.639   3.296
 5303SOL    HW217917   1.606   7.602   3.441
 5304SOL     OW17918   0.118   8.076   2.413
 5304SOL    HW117919   0.098   7.981   2.420
 5304SOL    HW217920   0.111   8.107   2.505
 5305SOL     OW17921   1.855   9.192   2.200
 5305SOL    HW117922   1.917   9.174   2.274
 5305SOL    HW217923   1.873   9.287   2.184
 5306SOL     OW17924   0.058   9.052   1.991
 5306SOL    HW117925   0.026   8.960   1.992
 5306SOL    HW217926  11.099   9.096   2.050
 5307SOL     OW17927   1.698   8.348   2.484
 5307SOL    HW117928   1.755   8.312   2.414
 5307SOL    HW217929   1.649   8.417   2.436
 5308SOL     OW17930   1.641   8.575   2.304
 5308SOL    HW117931   1.733   8.570   2.274
 5308SOL    HW217932   1.646   8.646   2.372
 5309SOL     OW17933   0.122   8.186   3.456
 5309SOL    HW117934   0.208   8.225   3.478
 5309SOL    HW217935   0.064   8.264   3.448
 5310SOL     OW17936   0.607   8.848   2.611
 5310SOL    HW117937   0.567   8.759   2.626
 5310SOL    HW217938   0.602   8.851   2.514
 5311SOL     OW17939   1.279   8.673   3.284
 5311SOL    HW117940   1.311   8.606   3.220
 5311SOL    HW217941   1.338   8.658   3.361
 5312SOL     OW17942   0.819   7.439   2.380
 5312SOL    HW117943   0.846   7.531   2.361
 5312SOL    HW217944   0.721   7.448   2.386
 5313SOL     OW17945   0.170   8.437   3.099
 5313SOL    HW117946   0.254   8.387   3.092
 5313SOL    HW217947   0.103   8.368   3.080
 5314SOL     OW17948   1.539   8.416   2.059
 5314SOL    HW117949   1.460   8.370   2.095
 5314SOL    HW217950   1.573   8.461   2.138
 5315SOL     OW17951   1.179   9.244   3.481
 5315SOL    HW117952   1.179   9.308   3.409
 5315SOL    HW217953   1.204   9.162   3.435
 5316SOL     OW17954   0.327   7.681   3.668
 5316SOL    HW117955   0.387   7.751   3.698
 5316SOL    HW217956   0.242   7.710   3.706
 5317SOL     OW17957   1.472   8.869   2.818
 5317SOL    HW117958   1.412   8.892   2.892
 5317SOL    HW217959   1.440   8.780   2.793
 5318SOL     OW17960   1.669   9.180   2.456
 5318SOL    HW117961   1.646   9.144   2.369
 5318SOL    HW217962   1.629   9.114   2.515
 5319SOL     OW17963   0.585   8.168   2.112
 5319SOL    HW117964   0.610   8.260   2.097
 5319SOL    HW217965   0.522   8.174   2.186
 5320SOL     OW17966   1.285   7.780   2.770
 5320SOL    HW117967   1.194   7.756   2.794
 5320SOL    HW217968   1.336   7.744   2.846
 5321SOL     OW17969   1.576   9.092   2.166
 5321SOL    HW117970   1.671   9.113   2.167
 5321SOL    HW217971   1.560   9.083   2.069
 5322SOL     OW17972   0.800   8.068   3.331
 5322SOL    HW117973   0.773   8.034   3.418
 5322SOL    HW217974   0.756   8.006   3.269
 5323SOL     OW17975   1.395   7.930   3.534
 5323SOL    HW117976   1.402   7.988   3.611
 5323SOL    HW217977   1.455   7.857   3.557
 5324SOL     OW17978   0.958   8.338   3.434
 5324SOL    HW117979   0.999   8.256   3.401
 5324SOL    HW217980   0.910   8.368   3.355
 5325SOL     OW17981   0.978   7.848   3.091
 5325SOL    HW117982   0.891   7.883   3.112
 5325SOL    HW217983   0.967   7.811   3.003
 5326SOL     OW17984   1.049   8.140   2.267
 5326SOL    HW117985   1.065   8.154   2.362
 5326SOL    HW217986   0.964   8.089   2.268
 5327SOL     OW17987   0.098   8.258   2.626
 5327SOL    HW117988   0.181   8.244   2.675
 5327SOL    HW217989   0.061   8.333   2.675
 5328SOL     OW17990   0.131   9.250   3.427
 5328SOL    HW117991   0.138   9.244   3.525
 5328SOL    HW217992   0.051   9.301   3.415
 5329SOL     OW17993   0.886   7.809   2.064
 5329SOL    HW117994   0.935   7.869   2.006
 5329SOL    HW217995   0.905   7.723   2.024
 5330SOL     OW17996   1.712   8.038   3.701
 5330SOL    HW117997   1.673   8.112   3.651
 5330SOL    HW217998   1.743   7.981   3.629
 5331SOL     OW17999   1.365   8.595   2.430
 5331SOL    HW118000   1.443   8.590   2.373
 5331SOL    HW218001   1.310   8.659   2.382
 5332SOL     OW18002   0.586   7.657   2.751
 5332SOL    HW118003   0.585   7.664   2.849
 5332SOL    HW218004   0.571   7.749   2.725
 5333SOL     OW18005   0.990   8.894   2.348
 5333SOL    HW118006   0.960   8.960   2.283
 5333SOL    HW218007   1.004   8.948   2.426
 5334SOL     OW18008   0.378   9.268   2.708
 5334SOL    HW118009   0.411   9.183   2.742
 5334SOL    HW218010   0.458   9.324   2.717
 5335SOL     OW18011   1.805   8.477   2.723
 5335SOL    HW118012   1.756   8.461   2.641
 5335SOL    HW218013   1.736   8.469   2.790
 5336SOL     OW18014   1.232   9.007   3.367
 5336SOL    HW118015   1.206   8.943   3.436
 5336SOL    HW218016   1.182   8.971   3.291
 5337SOL     OW18017   0.317   8.395   2.099
 5337SOL    HW118018   0.410   8.404   2.072
 5337SOL    HW218019   0.301   8.300   2.088
 5338SOL     OW18020   1.482   8.197   2.575
 5338SOL    HW118021   1.477   8.169   2.667
 5338SOL    HW218022   1.568   8.242   2.571
 5339SOL     OW18023   0.466   8.716   3.585
 5339SOL    HW118024   0.431   8.720   3.493
 5339SOL    HW218025   0.385   8.729   3.637
 5340SOL     OW18026   1.102   9.221   2.102
 5340SOL    HW118027   1.025   9.174   2.138
 5340SOL    HW218028   1.121   9.171   2.021
 5341SOL     OW18029   0.175   7.722   3.355
 5341SOL    HW118030   0.100   7.775   3.387
 5341SOL    HW218031   0.191   7.665   3.432
 5342SOL     OW18032   1.617   8.812   1.955
 5342SOL    HW118033   1.572   8.896   1.935
 5342SOL    HW218034   1.555   8.746   1.919
 5343SOL     OW18035   0.470   9.167   2.197
 5343SOL    HW118036   0.511   9.234   2.256
 5343SOL    HW218037   0.537   9.156   2.127
 5344SOL     OW18038   1.385   7.558   2.298
 5344SOL    HW118039   1.367   7.521   2.210
 5344SOL    HW218040   1.481   7.560   2.300
 5345SOL     OW18041   0.254   9.230   3.084
 5345SOL    HW118042   0.298   9.161   3.135
 5345SOL    HW218043   0.236   9.186   3.000
 5346SOL     OW18044   0.952   9.147   2.756
 5346SOL    HW118045   1.015   9.082   2.790
 5346SOL    HW218046   0.915   9.100   2.678
 5347SOL     OW18047   0.402   8.138   2.313
 5347SOL    HW118048   0.431   8.047   2.335
 5347SOL    HW218049   0.311   8.135   2.346
 5348SOL     OW18050   1.545   7.705   3.597
 5348SOL    HW118051   1.539   7.717   3.695
 5348SOL    HW218052   1.494   7.624   3.587
 5349SOL     OW18053   0.616   7.583   1.959
 5349SOL    HW118054   0.687   7.524   1.986
 5349SOL    HW218055   0.574   7.532   1.886
 5350SOL     OW18056   0.771   7.714   3.604
 5350SOL    HW118057   0.849   7.657   3.619
 5350SOL    HW218058   0.716   7.695   3.681
 5351SOL     OW18059   0.895   8.997   3.062
 5351SOL    HW118060   0.882   8.961   2.973
 5351SOL    HW218061   0.952   8.931   3.105
 5352SOL     OW18062   1.334   8.033   3.286
 5352SOL    HW118063   1.362   8.007   3.376
 5352SOL    HW218064   1.381   8.117   3.272
 5353SOL     OW18065   0.810   8.870   2.788
 5353SOL    HW118066   0.897   8.845   2.749
 5353SOL    HW218067   0.748   8.848   2.716
 5354SOL     OW18068   0.947   7.967   2.769
 5354SOL    HW118069   0.920   7.962   2.674
 5354SOL    HW218070   0.974   7.875   2.784
 5355SOL     OW18071   0.553   7.477   2.369
 5355SOL    HW118072   0.472   7.486   2.422
 5355SOL    HW218073   0.551   7.561   2.319
 5356SOL     OW18074   1.443   8.618   1.888
 5356SOL    HW118075   1.466   8.542   1.946
 5356SOL    HW218076   1.358   8.647   1.923
 5357SOL     OW18077   0.293   7.495   2.053
 5357SOL    HW118078   0.362   7.560   2.040
 5357SOL    HW218079   0.343   7.424   2.099
 5358SOL     OW18080   0.927   7.697   2.344
 5358SOL    HW118081   0.916   7.748   2.262
 5358SOL    HW218082   1.022   7.711   2.361
 5359SOL     OW18083   1.083   8.123   3.340
 5359SOL    HW118084   1.026   8.045   3.335
 5359SOL    HW218085   1.172   8.086   3.325
 5360SOL     OW18086   1.248   9.003   2.620
 5360SOL    HW118087   1.244   9.070   2.549
 5360SOL    HW218088   1.290   9.053   2.690
 5361SOL     OW18089   0.449   8.632   2.584
 5361SOL    HW118090   0.383   8.597   2.648
 5361SOL    HW218091   0.416   8.595   2.500
 5362SOL     OW18092   1.260   9.247   2.466
 5362SOL    HW118093   1.310   9.313   2.412
 5362SOL    HW218094   1.207   9.304   2.523
 5363SOL     OW18095   1.055   7.989   1.883
 5363SOL    HW118096   1.006   8.070   1.863
 5363SOL    HW218097   1.128   8.020   1.940
 5364SOL     OW18098   0.060   8.035   3.241
 5364SOL    HW118099   0.152   8.028   3.211
 5364SOL    HW218100   0.068   8.092   3.320
 5365SOL     OW18101   0.581   7.665   3.021
 5365SOL    HW118102   0.633   7.613   3.084
 5365SOL    HW218103   0.491   7.657   3.057
 5366SOL     OW18104   0.885   7.905   2.522
 5366SOL    HW118105   0.831   7.966   2.470
 5366SOL    HW218106   0.888   7.827   2.464
 5367SOL     OW18107   1.009   7.508   2.631
 5367SOL    HW118108   0.960   7.492   2.549
 5367SOL    HW218109   0.992   7.428   2.684
 5368SOL     OW18110   1.411   8.604   2.748
 5368SOL    HW118111   1.356   8.529   2.774
 5368SOL    HW218112   1.404   8.603   2.652
 5369SOL     OW18113   1.505   8.015   2.826
 5369SOL    HW118114   1.430   7.954   2.838
 5369SOL    HW218115   1.542   8.023   2.915
 5370SOL     OW18116   1.830   8.264   2.259
 5370SOL    HW118117   1.896   8.213   2.311
 5370SOL    HW218118   1.810   8.200   2.188
 5371SOL     OW18119   0.493   8.859   2.003
 5371SOL    HW118120   0.414   8.832   2.052
 5371SOL    HW218121   0.481   8.815   1.918
 5372SOL     OW18122   1.684   8.746   2.518
 5372SOL    HW118123   1.782   8.753   2.522
 5372SOL    HW218124   1.651   8.834   2.544
 5373SOL     OW18125   1.401   8.038   1.917
 5373SOL    HW118126   1.354   8.011   1.999
 5373SOL    HW218127   1.491   8.009   1.938
 5374SOL     OW18128   0.524   7.695   2.185
 5374SOL    HW118129   0.569   7.658   2.106
 5374SOL    HW218130   0.492   7.780   2.148
 5375SOL     OW18131   1.736   8.680   3.434
 5375SOL    HW118132   1.825   8.643   3.445
 5375SOL    HW218133   1.754   8.775   3.447
 5376SOL     OW18134   1.063   8.837   3.220
 5376SOL    HW118135   0.983   8.794   3.256
 5376SOL    HW218136   1.132   8.773   3.246
 5377SOL     OW18137   1.606   9.057   3.507
 5377SOL    HW118138   1.615   9.101   3.421
 5377SOL    HW218139   1.687   9.004   3.510
 5378SOL     OW18140   1.129   8.671   2.963
 5378SOL    HW118141   1.039   8.655   2.994
 5378SOL    HW218142   1.115   8.692   2.870
 5379SOL     OW18143   1.602   8.542   2.942
 5379SOL    HW118144   1.607   8.610   3.011
 5379SOL    HW218145   1.549   8.588   2.874
 5380SOL     OW18146   0.928   7.527   3.260
 5380SOL    HW118147   0.959   7.520   3.167
 5380SOL    HW218148   1.001   7.579   3.300
 5381SOL     OW18149   0.990   8.554   3.603
 5381SOL    HW118150   0.896   8.575   3.616
 5381SOL    HW218151   0.987   8.483   3.536
 5382SOL     OW18152   0.704   8.504   2.221
 5382SOL    HW118153   0.696   8.493   2.318
 5382SOL    HW218154   0.788   8.456   2.203
 5383SOL     OW18155   0.377   8.271   3.125
 5383SOL    HW118156   0.456   8.279   3.181
 5383SOL    HW218157   0.365   8.175   3.120
 5384SOL     OW18158   1.272   7.827   3.126
 5384SOL    HW118159   1.292   7.906   3.181
 5384SOL    HW218160   1.181   7.845   3.095
 5385SOL     OW18161   0.042   9.026   3.226
 5385SOL    HW118162   0.024   9.106   3.176
 5385SOL    HW218163   0.135   9.038   3.251
 5386SOL     OW18164   0.351   8.556   2.344
 5386SOL    HW118165   0.393   8.603   2.272
 5386SOL    HW218166   0.331   8.470   2.305
 5387SOL     OW18167   0.557   7.983   2.702
 5387SOL    HW118168   0.584   8.039   2.627
 5387SOL    HW218169   0.604   8.026   2.776
 5388SOL     OW18170   1.221   8.780   2.253
 5388SOL    HW118171   1.268   8.857   2.290
 5388SOL    HW218172   1.131   8.798   2.285
 5389SOL     OW18173   1.297   8.918   3.025
 5389SOL    HW118174   1.353   8.909   3.105
 5389SOL    HW218175   1.233   8.845   3.035
 5390SOL     OW18176   1.588   8.068   2.340
 5390SOL    HW118177   1.535   8.113   2.407
 5390SOL    HW218178   1.614   8.142   2.283
 5391SOL     OW18179   0.325   8.985   3.190
 5391SOL    HW118180   0.313   8.936   3.106
 5391SOL    HW218181   0.422   9.002   3.185
 5392SOL     OW18182   0.424   8.181   3.470
 5392SOL    HW118183   0.483   8.227   3.407
 5392SOL    HW218184   0.456   8.091   3.461
 5393SOL     OW18185   1.627   8.225   3.534
 5393SOL    HW118186   1.535   8.257   3.528
 5393SOL    HW218187   1.670   8.278   3.463
 5394SOL     OW18188   0.987   7.554   3.620
 5394SOL    HW118189   1.049   7.627   3.604
 5394SOL    HW218190   1.036   7.480   3.580
 5395SOL     OW18191   0.489   7.470   3.620
 5395SOL    HW118192   0.450   7.414   3.550
 5395SOL    HW218193   0.424   7.543   3.624
 5396SOL     OW18194   0.571   8.326   2.876
 5396SOL    HW118195   0.649   8.373   2.841
 5396SOL    HW218196   0.558   8.366   2.962
 5397SOL     OW18197   1.341   8.322   2.875
 5397SOL    HW118198   1.256   8.274   2.863
 5397SOL    HW218199   1.399   8.249   2.899
 5398SOL     OW18200   1.227   7.961   2.123
 5398SOL    HW118201   1.231   7.891   2.191
 5398SOL    HW218202   1.170   8.026   2.168
 5399SOL     OW18203   0.306   7.640   3.114
 5399SOL    HW118204   0.241   7.671   3.180
 5399SOL    HW218205   0.285   7.544   3.109
 5400SOL     OW18206   0.074   8.767   3.121
 5400SOL    HW118207   0.123   8.710   3.183
 5400SOL    HW218208   0.063   8.850   3.171
 5401SOL     OW18209   0.742   8.091   2.914
 5401SOL    HW118210   0.817   8.066   2.856
 5401SOL    HW218211   0.717   8.178   2.878
 5402SOL     OW18212   1.762   8.396   3.714
 5402SOL    HW118213   1.715   8.340   3.650
 5402SOL    HW218214   1.697   8.400   3.787
 5403SOL     OW18215   0.284   7.510   2.464
 5403SOL    HW118216   0.268   7.602   2.491
 5403SOL    HW218217   0.312   7.471   2.550
 5404SOL     OW18218   1.596   7.824   2.218
 5404SOL    HW118219   1.639   7.764   2.280
 5404SOL    HW218220   1.588   7.907   2.271
 5405SOL     OW18221   1.106   8.181   2.859
 5405SOL    HW118222   1.040   8.251   2.843
 5405SOL    HW218223   1.055   8.102   2.837
 5406SOL     OW18224   0.983   9.023   3.561
 5406SOL    HW118225   0.962   9.072   3.479
 5406SOL    HW218226   1.011   8.936   3.528
 5407SOL     OW18227   1.846   8.938   3.467
 5407SOL    HW118228   1.871   8.964   3.377
 5407SOL    HW218229   1.926   8.964   3.517
 5408SOL     OW18230   0.346   8.347   3.669
 5408SOL    HW118231   0.425   8.365   3.722
 5408SOL    HW218232   0.377   8.277   3.609
 5409SOL     OW18233   1.502   7.701   1.983
 5409SOL    HW118234   1.425   7.654   2.017
 5409SOL    HW218235   1.540   7.741   2.063
 5410SOL     OW18236   1.294   8.283   1.885
 5410SOL    HW118237   1.336   8.196   1.898
 5410SOL    HW218238   1.329   8.309   1.798
 5411SOL     OW18239   1.059   8.813   2.711
 5411SOL    HW118240   1.063   8.734   2.653
 5411SOL    HW218241   1.136   8.865   2.683
 5412SOL     OW18242   0.295   8.276   2.821
 5412SOL    HW118243   0.390   8.297   2.820
 5412SOL    HW218244   0.297   8.192   2.871
 5413SOL     OW18245   0.340   7.995   2.860
 5413SOL    HW118246   0.305   7.905   2.849
 5413SOL    HW218247   0.411   7.997   2.792
 5414SOL     OW18248   1.154   7.807   3.560
 5414SOL    HW118249   1.108   7.866   3.623
 5414SOL    HW218250   1.243   7.848   3.558
 5415SOL     OW18251   1.157   7.642   3.341
 5415SOL    HW118252   1.166   7.707   3.414
 5415SOL    HW218253   1.199   7.690   3.268
 5416SOL     OW18254  11.090   8.785   2.053
 5416SOL    HW118255  11.003   8.792   2.012
 5416SOL    HW218256  11.089   8.695   2.091
 5417SOL     OW18257   0.132   9.243   2.817
 5417SOL    HW118258   0.086   9.207   2.740
 5417SOL    HW218259   0.220   9.263   2.780
 5418SOL     OW18260   0.495   9.033   2.779
 5418SOL    HW118261   0.571   9.093   2.787
 5418SOL    HW218262   0.535   8.960   2.728
 5419SOL     OW18263   0.961   8.272   3.131
 5419SOL    HW118264   1.012   8.207   3.182
 5419SOL    HW218265   0.890   8.219   3.094
 5420SOL     OW18266  11.090   8.039   2.955
 5420SOL    HW118267   0.064   8.000   2.909
 5420SOL    HW218268   0.012   8.021   3.048
 5421SOL     OW18269   0.210   7.974   3.603
 5421SOL    HW118270   0.264   7.923   3.541
 5421SOL    HW218271   0.175   8.044   3.545
 5422SOL     OW18272   1.379   8.347   3.505
 5422SOL    HW118273   1.398   8.443   3.508
 5422SOL    HW218274   1.366   8.332   3.410
 5423SOL     OW18275   0.808   8.018   2.217
 5423SOL    HW118276   0.815   7.942   2.157
 5423SOL    HW218277   0.723   8.058   2.190
 5424SOL     OW18278   1.639   8.072   3.071
 5424SOL    HW118279   1.598   8.018   3.141
 5424SOL    HW218280   1.713   8.017   3.042
 5425SOL     OW18281   0.264   8.987   3.582
 5425SOL    HW118282   0.242   9.062   3.639
 5425SOL    HW218283   0.246   8.911   3.641
 5426SOL     OW18284   0.692   7.931   3.126
 5426SOL    HW118285   0.647   7.856   3.085
 5426SOL    HW218286   0.698   7.996   3.053
 5427SOL     OW18287   0.901   9.129   3.325
 5427SOL    HW118288   0.905   9.096   3.234
 5427SOL    HW218289   0.906   9.226   3.314
 5428SOL     OW18290   0.451   7.933   2.046
 5428SOL    HW118291   0.515   8.006   2.047
 5428SOL    HW218292   0.368   7.983   2.052
 5429SOL     OW18293   0.156   8.577   3.325
 5429SOL    HW118294   0.175   8.517   3.399
 5429SOL    HW218295   0.166   8.519   3.246
 5430SOL     OW18296   1.326   8.490   3.093
 5430SOL    HW118297   1.342   8.433   3.015
 5430SOL    HW218298   1.253   8.545   3.059
 5431SOL     OW18299   1.310   8.298   2.161
 5431SOL    HW118300   1.228   8.274   2.205
 5431SOL    HW218301   1.285   8.301   2.067
 5432SOL     OW18302   1.758   9.194   2.989
 5432SOL    HW118303   1.834   9.216   2.932
 5432SOL    HW218304   1.752   9.097   2.976
 5433SOL     OW18305   1.247   9.180   2.978
 5433SOL    HW118306   1.335   9.196   2.939
 5433SOL    HW218307   1.252   9.085   2.999
 5434SOL     OW18308   0.098   8.746   2.857
 5434SOL    HW118309   0.098   8.754   2.955
 5434SOL    HW218310   0.027   8.682   2.845
 5435SOL     OW18311   0.676   9.096   3.605
 5435SOL    HW118312   0.639   9.185   3.598
 5435SOL    HW218313   0.754   9.102   3.547
 5436SOL     OW18314   1.744   7.579   2.406
 5436SOL    HW118315   1.781   7.568   2.317
 5436SOL    HW218316   1.723   7.488   2.433
 5437SOL     OW18317   1.360   9.016   2.337
 5437SOL    HW118318   1.424   9.033   2.265
 5437SOL    HW218319   1.325   9.105   2.355
 5438SOL     OW18320   0.171   9.235   3.697
 5438SOL    HW118321   0.116   9.168   3.742
 5438SOL    HW218322   0.217   9.277   3.772
 5439SOL     OW18323   1.256   8.361   2.512
 5439SOL    HW118324   1.335   8.310   2.536
 5439SOL    HW218325   1.295   8.444   2.480
 5440SOL     OW18326   0.817   8.726   3.300
 5440SOL    HW118327   0.777   8.780   3.371
 5440SOL    HW218328   0.748   8.730   3.232
 5441SOL     OW18329   0.673   9.060   2.026
 5441SOL    HW118330   0.680   9.078   1.930
 5441SOL    HW218331   0.619   8.979   2.026
 5442SOL     OW18332   1.624   9.170   3.251
 5442SOL    HW118333   1.669   9.184   3.166
 5442SOL    HW218334   1.615   9.261   3.286
 5443SOL     OW18335   1.866   7.635   2.828
 5443SOL    HW118336   1.876   7.543   2.795
 5443SOL    HW218337   1.775   7.656   2.798
 5444SOL     OW18338   0.257   7.751   2.572
 5444SOL    HW118339   0.164   7.778   2.557
 5444SOL    HW218340   0.264   7.756   2.669
 5445SOL     OW18341   1.198   9.077   1.889
 5445SOL    HW118342   1.204   8.981   1.902
 5445SOL    HW218343   1.133   9.086   1.816
 5446SOL     OW18344   0.791   8.460   3.245
 5446SOL    HW118345   0.842   8.444   3.164
 5446SOL    HW218346   0.815   8.552   3.269
 5447SOL     OW18347   0.915   8.370   2.132
 5447SOL    HW118348   0.992   8.403   2.082
 5447SOL    HW218349   0.950   8.290   2.175
 5448SOL     OW18350   1.517   9.060   1.898
 5448SOL    HW118351   1.423   9.077   1.887
 5448SOL    HW218352   1.549   9.062   1.805
 5449SOL     OW18353   0.371   8.731   3.340
 5449SOL    HW118354   0.349   8.816   3.299
 5449SOL    HW218355   0.291   8.677   3.329
 5450SOL     OW18356   1.610   8.759   3.125
 5450SOL    HW118357   1.652   8.733   3.208
 5450SOL    HW218358   1.549   8.829   3.157
 5451SOL     OW18359   1.044   8.576   2.581
 5451SOL    HW118360   0.981   8.517   2.627
 5451SOL    HW218361   1.100   8.510   2.538
 5452SOL     OW18362   1.035   7.680   2.846
 5452SOL    HW118363   1.022   7.635   2.760
 5452SOL    HW218364   1.040   7.604   2.907
 5453SOL     OW18365   0.591   8.889   2.340
 5453SOL    HW118366   0.658   8.864   2.273
 5453SOL    HW218367   0.556   8.972   2.304
 5454SOL     OW18368   1.718   7.811   3.245
 5454SOL    HW118369   1.778   7.889   3.241
 5454SOL    HW218370   1.766   7.746   3.189
 5455SOL     OW18371   0.239   8.812   2.138
 5455SOL    HW118372   0.144   8.819   2.115
 5455SOL    HW218373   0.253   8.885   2.198
 5456SOL     OW18374   0.123   8.468   3.602
 5456SOL    HW118375   0.057   8.428   3.659
 5456SOL    HW218376   0.207   8.424   3.632
 5457SOL     OW18377   0.687   7.637   3.349
 5457SOL    HW118378   0.777   7.608   3.325
 5457SOL    HW218379   0.702   7.677   3.437
 5458SOL     OW18380   0.087   7.778   1.909
 5458SOL    HW118381  11.094   7.768   1.895
 5458SOL    HW218382   0.102   7.866   1.868
 5459SOL     OW18383   1.462   8.301   3.242
 5459SOL    HW118384   1.413   8.369   3.192
 5459SOL    HW218385   1.552   8.336   3.238
 5460SOL     OW18386   0.072   7.613   2.165
 5460SOL    HW118387   0.070   7.688   2.106
 5460SOL    HW218388   0.157   7.570   2.142
 5461SOL     OW18389   1.219   8.803   1.971
 5461SOL    HW118390   1.136   8.755   1.974
 5461SOL    HW218391   1.242   8.807   2.066
 5462SOL     OW18392   0.614   8.266   3.282
 5462SOL    HW118393   0.666   8.349   3.278
 5462SOL    HW218394   0.686   8.202   3.291
 5463SOL     OW18395   1.506   9.213   2.833
 5463SOL    HW118396   1.538   9.250   2.751
 5463SOL    HW218397   1.588   9.193   2.881
 5464SOL     OW18398   0.719   7.986   3.569
 5464SOL    HW118399   0.771   8.050   3.620
 5464SOL    HW218400   0.746   7.899   3.604
 5465SOL     OW18401   1.466   8.620   3.485
 5465SOL    HW118402   1.454   8.632   3.582
 5465SOL    HW218403   1.559   8.646   3.474
 5466SOL     OW18404   0.388   9.178   3.420
 5466SOL    HW118405   0.300   9.218   3.404
 5466SOL    HW218406   0.360   9.092   3.458
 5467SOL     OW18407   1.718   8.337   3.105
 5467SOL    HW118408   1.683   8.249   3.081
 5467SOL    HW218409   1.675   8.397   3.041
 5468SOL     OW18410   1.204   7.778   2.328
 5468SOL    HW118411   1.269   7.706   2.322
 5468SOL    HW218412   1.241   7.832   2.402
 5469SOL     OW18413   0.610   8.179   2.510
 5469SOL    HW118414   0.652   8.265   2.527
 5469SOL    HW218415   0.540   8.200   2.447
 5470SOL     OW18416   1.768   7.831   3.507
 5470SOL    HW118417   1.740   7.836   3.413
 5470SOL    HW218418   1.694   7.780   3.544
 5471SOL     OW18419   1.739   8.398   3.366
 5471SOL    HW118420   1.738   8.495   3.373
 5471SOL    HW218421   1.753   8.384   3.270
 5472SOL     OW18422   0.862   8.821   1.889
 5472SOL    HW118423   0.841   8.831   1.983
 5472SOL    HW218424   0.889   8.910   1.861
 5473SOL     OW18425   0.662   9.255   2.762
 5473SOL    HW118426   0.660   9.352   2.757
 5473SOL    HW218427   0.755   9.235   2.781
 5474SOL     OW18428   1.100   8.447   1.955
 5474SOL    HW118429   1.070   8.498   1.878
 5474SOL    HW218430   1.166   8.386   1.916
 5475SOL     OW18431   1.871   9.004   2.686
 5475SOL    HW118432   1.776   9.001   2.675
 5475SOL    HW218433   1.887   8.941   2.758
 5476SOL     OW18434   0.218   8.756   3.721
 5476SOL    HW118435   0.173   8.676   3.693
 5476SOL    HW218436   0.219   8.748   3.818
 5477SOL     OW18437   0.110   8.694   2.491
 5477SOL    HW118438   0.102   8.639   2.571
 5477SOL    HW218439   0.156   8.633   2.431
 5478SOL     OW18440   0.670   8.854   3.479
 5478SOL    HW118441   0.591   8.800   3.502
 5478SOL    HW218442   0.656   8.933   3.534
 5479SOL     OW18443   1.826   7.614   3.087
 5479SOL    HW118444   1.816   7.519   3.097
 5479SOL    HW218445   1.827   7.624   2.990
 5480SOL     OW18446   0.419   7.873   2.386
 5480SOL    HW118447   0.471   7.805   2.341
 5480SOL    HW218448   0.372   7.824   2.455
 5481SOL     OW18449   1.722   8.933   2.938
 5481SOL    HW118450   1.636   8.918   2.896
 5481SOL    HW218451   1.713   8.873   3.014
 5482SOL     OW18452   0.320   7.997   3.133
 5482SOL    HW118453   0.381   7.937   3.178
 5482SOL    HW218454   0.330   7.973   3.039
 5483SOL     OW18455   0.827   9.059   2.531
 5483SOL    HW118456   0.801   9.122   2.462
 5483SOL    HW218457   0.751   9.001   2.541
 5484SOL     OW18458   1.436   7.691   2.969
 5484SOL    HW118459   1.475   7.617   3.016
 5484SOL    HW218460   1.381   7.734   3.038
 5485SOL     OW18461   1.018   7.443   3.007
 5485SOL    HW118462   0.977   7.379   2.947
 5485SOL    HW218463   1.110   7.407   3.012
 5486SOL     OW18464   0.792   8.776   2.174
 5486SOL    HW118465   0.768   8.682   2.183
 5486SOL    HW218466   0.862   8.786   2.241
 5487SOL     OW18467   0.595   9.010   3.131
 5487SOL    HW118468   0.599   9.098   3.173
 5487SOL    HW218469   0.690   8.993   3.120
 5488SOL     OW18470   1.309   7.484   2.024
 5488SOL    HW118471   1.328   7.410   1.965
 5488SOL    HW218472   1.221   7.458   2.060
 5489SOL     OW18473   1.305   7.923   2.538
 5489SOL    HW118474   1.247   8.002   2.542
 5489SOL    HW218475   1.284   7.878   2.622
 5490SOL     OW18476   1.611   7.655   2.750
 5490SOL    HW118477   1.529   7.666   2.802
 5490SOL    HW218478   1.603   7.725   2.684
 5491SOL     OW18479   0.054   8.531   2.149
 5491SOL    HW118480   0.149   8.524   2.130
 5491SOL    HW218481   0.034   8.441   2.181
 5492SOL     OW18482   0.887   9.087   2.186
 5492SOL    HW118483   0.809   9.070   2.129
 5492SOL    HW218484   0.858   9.163   2.240
 5493SOL     OW18485   0.242   8.095   3.850
 5493SOL    HW118486   0.158   8.070   3.893
 5493SOL    HW218487   0.235   8.057   3.761
 5494SOL     OW18488   0.228   7.740   4.725
 5494SOL    HW118489   0.261   7.712   4.813
 5494SOL    HW218490   0.158   7.674   4.712
 5495SOL     OW18491  11.098   7.829   4.362
 5495SOL    HW118492  11.021   7.857   4.412
 5495SOL    HW218493  11.071   7.741   4.327
 5496SOL     OW18494   0.577   8.737   4.909
 5496SOL    HW118495   0.488   8.701   4.907
 5496SOL    HW218496   0.564   8.830   4.934
 5497SOL     OW18497   1.533   8.986   4.435
 5497SOL    HW118498   1.501   8.957   4.523
 5497SOL    HW218499   1.459   8.970   4.375
 5498SOL     OW18500   1.132   8.128   4.429
 5498SOL    HW118501   1.162   8.218   4.408
 5498SOL    HW218502   1.092   8.140   4.516
 5499SOL     OW18503   1.772   8.053   3.959
 5499SOL    HW118504   1.752   8.055   3.863
 5499SOL    HW218505   1.724   7.974   3.986
 5500SOL     OW18506   0.751   8.607   4.750
 5500SOL    HW118507   0.691   8.652   4.813
 5500SOL    HW218508   0.783   8.684   4.700
 5501SOL     OW18509   0.889   8.195   5.532
 5501SOL    HW118510   0.864   8.262   5.597
 5501SOL    HW218511   0.916   8.247   5.454
 5502SOL     OW18512   0.687   8.460   4.378
 5502SOL    HW118513   0.756   8.439   4.444
 5502SOL    HW218514   0.625   8.514   4.428
 5503SOL     OW18515   0.693   8.607   5.535
 5503SOL    HW118516   0.731   8.677   5.481
 5503SOL    HW218517   0.598   8.617   5.514
 5504SOL     OW18518   1.474   8.956   5.093
 5504SOL    HW118519   1.527   9.037   5.107
 5504SOL    HW218520   1.409   8.962   5.164
 5505SOL     OW18521   0.438   7.836   5.260
 5505SOL    HW118522   0.517   7.785   5.234
 5505SOL    HW218523   0.365   7.779   5.230
 5506SOL     OW18524   1.620   7.895   4.467
 5506SOL    HW118525   1.552   7.925   4.405
 5506SOL    HW218526   1.616   7.963   4.535
 5507SOL     OW18527   0.233   9.119   4.201
 5507SOL    HW118528   0.235   9.202   4.253
 5507SOL    HW218529   0.278   9.146   4.120
 5508SOL     OW18530   1.136   8.789   5.401
 5508SOL    HW118531   1.200   8.768   5.470
 5508SOL    HW218532   1.087   8.705   5.393
 5509SOL     OW18533   0.248   8.858   4.257
 5509SOL    HW118534   0.246   8.953   4.234
 5509SOL    HW218535   0.167   8.848   4.308
 5510SOL     OW18536   0.274   8.553   4.645
 5510SOL    HW118537   0.280   8.462   4.677
 5510SOL    HW218538   0.178   8.569   4.651
 5511SOL     OW18539   0.608   9.243   5.129
 5511SOL    HW118540   0.533   9.222   5.188
 5511SOL    HW218541   0.630   9.334   5.156
 5512SOL     OW18542   0.572   8.445   3.849
 5512SOL    HW118543   0.622   8.497   3.783
 5512SOL    HW218544   0.618   8.472   3.932
 5513SOL     OW18545   1.596   7.565   5.221
 5513SOL    HW118546   1.594   7.642   5.162
 5513SOL    HW218547   1.613   7.608   5.307
 5514SOL     OW18548   0.136   8.093   4.283
 5514SOL    HW118549   0.120   7.997   4.290
 5514SOL    HW218550   0.110   8.125   4.371
 5515SOL     OW18551   1.850   9.178   4.074
 5515SOL    HW118552   1.914   9.163   4.147
 5515SOL    HW218553   1.868   9.271   4.054
 5516SOL     OW18554   0.054   9.042   3.835
 5516SOL    HW118555   0.042   8.947   3.852
 5516SOL    HW218556   0.018   9.083   3.914
 5517SOL     OW18557   1.682   8.359   4.374
 5517SOL    HW118558   1.761   8.324   4.331
 5517SOL    HW218559   1.651   8.423   4.308
 5518SOL     OW18560   1.645   8.565   4.177
 5518SOL    HW118561   1.733   8.569   4.138
 5518SOL    HW218562   1.649   8.638   4.242
 5519SOL     OW18563   0.115   8.176   5.319
 5519SOL    HW118564   0.205   8.209   5.310
 5519SOL    HW218565   0.060   8.252   5.294
 5520SOL     OW18566   0.609   8.851   4.477
 5520SOL    HW118567   0.566   8.763   4.478
 5520SOL    HW218568   0.608   8.869   4.381
 5521SOL     OW18569   1.282   8.672   5.147
 5521SOL    HW118570   1.317   8.608   5.084
 5521SOL    HW218571   1.339   8.659   5.225
 5522SOL     OW18572   0.823   7.438   4.233
 5522SOL    HW118573   0.854   7.529   4.219
 5522SOL    HW218574   0.726   7.450   4.230
 5523SOL     OW18575   0.168   8.436   4.967
 5523SOL    HW118576   0.255   8.393   4.958
 5523SOL    HW218577   0.108   8.364   4.943
 5524SOL     OW18578   1.546   8.415   3.914
 5524SOL    HW118579   1.465   8.371   3.946
 5524SOL    HW218580   1.583   8.449   3.997
 5525SOL     OW18581   1.179   9.241   5.344
 5525SOL    HW118582   1.184   9.312   5.278
 5525SOL    HW218583   1.203   9.164   5.290
 5526SOL     OW18584   0.326   7.674   5.551
 5526SOL    HW118585   0.388   7.747   5.562
 5526SOL    HW218586   0.242   7.709   5.584
 5527SOL     OW18587   1.468   8.872   4.682
 5527SOL    HW118588   1.409   8.894   4.757
 5527SOL    HW218589   1.438   8.781   4.659
 5528SOL     OW18590   1.648   9.194   4.313
 5528SOL    HW118591   1.635   9.153   4.227
 5528SOL    HW218592   1.619   9.122   4.373
 5529SOL     OW18593   0.592   8.165   3.979
 5529SOL    HW118594   0.600   8.256   3.946
 5529SOL    HW218595   0.524   8.173   4.049
 5530SOL     OW18596   1.278   7.778   4.639
 5530SOL    HW118597   1.188   7.749   4.663
 5530SOL    HW218598   1.332   7.741   4.711
 5531SOL     OW18599   1.578   9.096   4.038
 5531SOL    HW118600   1.673   9.113   4.032
 5531SOL    HW218601   1.555   9.086   3.944
 5532SOL     OW18602   0.791   8.072   5.186
 5532SOL    HW118603   0.772   8.037   5.275
 5532SOL    HW218604   0.752   8.004   5.128
 5533SOL     OW18605   1.396   7.922   5.399
 5533SOL    HW118606   1.406   7.980   5.478
 5533SOL    HW218607   1.463   7.854   5.417
 5534SOL     OW18608   0.957   8.333   5.306
 5534SOL    HW118609   0.999   8.253   5.269
 5534SOL    HW218610   0.906   8.364   5.229
 5535SOL     OW18611   0.982   7.849   4.958
 5535SOL    HW118612   0.890   7.863   4.983
 5535SOL    HW218613   0.976   7.790   4.881
 5536SOL     OW18614   1.045   8.129   4.131
 5536SOL    HW118615   1.064   8.149   4.224
 5536SOL    HW218616   0.961   8.078   4.137
 5537SOL     OW18617   0.086   8.252   4.499
 5537SOL    HW118618   0.172   8.244   4.543
 5537SOL    HW218619   0.048   8.327   4.547
 5538SOL     OW18620   0.109   9.238   5.305
 5538SOL    HW118621   0.135   9.240   5.400
 5538SOL    HW218622   0.071   9.325   5.292
 5539SOL     OW18623   0.886   7.851   3.919
 5539SOL    HW118624   0.934   7.905   3.853
 5539SOL    HW218625   0.901   7.762   3.885
 5540SOL     OW18626   1.709   8.043   5.569
 5540SOL    HW118627   1.672   8.118   5.519
 5540SOL    HW218628   1.747   7.990   5.497
 5541SOL     OW18629   1.361   8.597   4.292
 5541SOL    HW118630   1.438   8.589   4.235
 5541SOL    HW218631   1.307   8.660   4.243
 5542SOL     OW18632   0.591   7.658   4.621
 5542SOL    HW118633   0.585   7.662   4.718
 5542SOL    HW218634   0.568   7.749   4.596
 5543SOL     OW18635   0.985   8.887   4.216
 5543SOL    HW118636   0.949   8.953   4.153
 5543SOL    HW218637   0.984   8.938   4.299
 5544SOL     OW18638   0.380   9.269   4.576
 5544SOL    HW118639   0.437   9.200   4.615
 5544SOL    HW218640   0.439   9.345   4.579
 5545SOL     OW18641   1.811   8.503   4.589
 5545SOL    HW118642   1.758   8.474   4.513
 5545SOL    HW218643   1.749   8.492   4.663
 5546SOL     OW18644   1.226   9.009   5.223
 5546SOL    HW118645   1.209   8.934   5.281
 5546SOL    HW218646   1.185   8.978   5.140
 5547SOL     OW18647   0.318   8.406   3.979
 5547SOL    HW118648   0.397   8.425   3.925
 5547SOL    HW218649   0.295   8.316   3.951
 5548SOL     OW18650   1.474   8.208   4.448
 5548SOL    HW118651   1.476   8.179   4.540
 5548SOL    HW218652   1.557   8.259   4.440
 5549SOL     OW18653   0.459   8.703   5.444
 5549SOL    HW118654   0.434   8.708   5.350
 5549SOL    HW218655   0.374   8.713   5.489
 5550SOL     OW18656   1.104   9.221   3.958
 5550SOL    HW118657   1.034   9.172   4.003
 5550SOL    HW218658   1.116   9.171   3.876
 5551SOL     OW18659   0.183   7.726   5.221
 5551SOL    HW118660   0.099   7.774   5.225
 5551SOL    HW218661   0.164   7.647   5.274
 5552SOL     OW18662   1.616   8.819   3.820
 5552SOL    HW118663   1.568   8.902   3.800
 5552SOL    HW218664   1.557   8.751   3.782
 5553SOL     OW18665   0.464   9.182   4.043
 5553SOL    HW118666   0.507   9.237   4.112
 5553SOL    HW218667   0.539   9.153   3.988
 5554SOL     OW18668   1.395   7.569   4.175
 5554SOL    HW118669   1.383   7.527   4.088
 5554SOL    HW218670   1.491   7.581   4.179
 5555SOL     OW18671   0.248   9.243   4.956
 5555SOL    HW118672   0.291   9.164   4.992
 5555SOL    HW218673   0.242   9.224   4.862
 5556SOL     OW18674   0.948   9.146   4.620
 5556SOL    HW118675   1.035   9.104   4.626
 5556SOL    HW218676   0.911   9.100   4.541
 5557SOL     OW18677   0.414   8.143   4.188
 5557SOL    HW118678   0.436   8.049   4.204
 5557SOL    HW218679   0.322   8.145   4.220
 5558SOL     OW18680   1.550   7.706   5.450
 5558SOL    HW118681   1.544   7.708   5.549
 5558SOL    HW218682   1.473   7.651   5.429
 5559SOL     OW18683   0.625   7.579   3.822
 5559SOL    HW118684   0.695   7.517   3.843
 5559SOL    HW218685   0.578   7.532   3.750
 5560SOL     OW18686   0.760   7.727   5.470
 5560SOL    HW118687   0.844   7.678   5.473
 5560SOL    HW218688   0.713   7.692   5.547
 5561SOL     OW18689   0.881   8.984   4.924
 5561SOL    HW118690   0.877   8.963   4.829
 5561SOL    HW218691   0.946   8.921   4.958
 5562SOL     OW18692   1.330   8.046   5.158
 5562SOL    HW118693   1.365   8.014   5.244
 5562SOL    HW218694   1.387   8.123   5.140
 5563SOL     OW18695   0.831   8.853   4.664
 5563SOL    HW118696   0.919   8.838   4.624
 5563SOL    HW218697   0.774   8.859   4.586
 5564SOL     OW18698   0.940   7.980   4.633
 5564SOL    HW118699   0.915   7.965   4.539
 5564SOL    HW218700   0.960   7.889   4.659
 5565SOL     OW18701   0.559   7.494   4.221
 5565SOL    HW118702   0.480   7.496   4.278
 5565SOL    HW218703   0.545   7.575   4.167
 5566SOL     OW18704   1.448   8.623   3.749
 5566SOL    HW118705   1.475   8.549   3.807
 5566SOL    HW218706   1.362   8.648   3.786
 5567SOL     OW18707   0.292   7.484   3.924
 5567SOL    HW118708   0.355   7.552   3.899
 5567SOL    HW218709   0.347   7.422   3.976
 5568SOL     OW18710   0.934   7.696   4.211
 5568SOL    HW118711   0.917   7.750   4.132
 5568SOL    HW218712   1.030   7.712   4.224
 5569SOL     OW18713   1.080   8.128   5.188
 5569SOL    HW118714   1.033   8.043   5.184
 5569SOL    HW218715   1.174   8.101   5.180
 5570SOL     OW18716   1.215   9.036   4.532
 5570SOL    HW118717   1.220   9.089   4.450
 5570SOL    HW218718   1.300   9.055   4.573
 5571SOL     OW18719   0.458   8.627   4.449
 5571SOL    HW118720   0.392   8.587   4.507
 5571SOL    HW218721   0.430   8.595   4.360
 5572SOL     OW18722   1.255   9.243   4.339
 5572SOL    HW118723   1.305   9.308   4.286
 5572SOL    HW218724   1.203   9.301   4.398
 5573SOL     OW18725   1.060   7.988   3.741
 5573SOL    HW118726   1.011   8.070   3.722
 5573SOL    HW218727   1.131   8.016   3.802
 5574SOL     OW18728   0.059   8.024   5.107
 5574SOL    HW118729   0.150   8.019   5.074
 5574SOL    HW218730   0.068   8.084   5.183
 5575SOL     OW18731   0.579   7.676   4.890
 5575SOL    HW118732   0.620   7.605   4.941
 5575SOL    HW218733   0.486   7.671   4.921
 5576SOL     OW18734   0.881   7.908   4.387
 5576SOL    HW118735   0.835   7.956   4.317
 5576SOL    HW218736   0.896   7.821   4.346
 5577SOL     OW18737   1.012   7.521   4.494
 5577SOL    HW118738   0.966   7.505   4.411
 5577SOL    HW218739   0.991   7.443   4.547
 5578SOL     OW18740   1.415   8.622   4.611
 5578SOL    HW118741   1.362   8.545   4.637
 5578SOL    HW218742   1.417   8.614   4.515
 5579SOL     OW18743   1.472   8.041   4.706
 5579SOL    HW118744   1.429   7.954   4.710
 5579SOL    HW218745   1.540   8.034   4.776
 5580SOL     OW18746   1.840   8.272   4.112
 5580SOL    HW118747   1.893   8.217   4.173
 5580SOL    HW218748   1.819   8.208   4.042
 5581SOL     OW18749   0.496   8.859   3.878
 5581SOL    HW118750   0.411   8.836   3.920
 5581SOL    HW218751   0.494   8.811   3.795
 5582SOL     OW18752   1.671   8.742   4.382
 5582SOL    HW118753   1.768   8.745   4.387
 5582SOL    HW218754   1.643   8.830   4.410
 5583SOL     OW18755   1.415   8.043   3.795
 5583SOL    HW118756   1.364   8.012   3.872
 5583SOL    HW218757   1.503   8.009   3.814
 5584SOL     OW18758   0.518   7.695   4.045
 5584SOL    HW118759   0.567   7.656   3.970
 5584SOL    HW218760   0.492   7.780   4.005
 5585SOL     OW18761   1.730   8.680   5.311
 5585SOL    HW118762   1.816   8.635   5.322
 5585SOL    HW218763   1.758   8.773   5.314
 5586SOL     OW18764   1.068   8.818   5.074
 5586SOL    HW118765   0.996   8.767   5.114
 5586SOL    HW218766   1.146   8.766   5.102
 5587SOL     OW18767   1.613   9.047   5.360
 5587SOL    HW118768   1.618   9.094   5.275
 5587SOL    HW218769   1.698   8.999   5.361
 5588SOL     OW18770   1.128   8.676   4.827
 5588SOL    HW118771   1.050   8.696   4.878
 5588SOL    HW218772   1.110   8.716   4.741
 5589SOL     OW18773   1.594   8.543   4.801
 5589SOL    HW118774   1.603   8.606   4.875
 5589SOL    HW218775   1.537   8.593   4.740
 5590SOL     OW18776   0.928   7.542   5.127
 5590SOL    HW118777   0.957   7.529   5.035
 5590SOL    HW218778   1.006   7.587   5.166
 5591SOL     OW18779   0.974   8.558   5.470
 5591SOL    HW118780   0.881   8.546   5.493
 5591SOL    HW218781   0.990   8.487   5.405
 5592SOL     OW18782   0.717   8.504   4.080
 5592SOL    HW118783   0.713   8.487   4.175
 5592SOL    HW218784   0.794   8.450   4.052
 5593SOL     OW18785   0.386   8.272   4.989
 5593SOL    HW118786   0.463   8.270   5.049
 5593SOL    HW218787   0.366   8.177   4.982
 5594SOL     OW18788   1.288   7.837   4.998
 5594SOL    HW118789   1.305   7.915   5.056
 5594SOL    HW218790   1.198   7.854   4.967
 5595SOL     OW18791   0.040   9.029   5.092
 5595SOL    HW118792   0.029   9.094   5.021
 5595SOL    HW218793   0.136   9.033   5.107
 5596SOL     OW18794   0.365   8.547   4.212
 5596SOL    HW118795   0.375   8.617   4.147
 5596SOL    HW218796   0.346   8.469   4.157
 5597SOL     OW18797   0.555   7.991   4.574
 5597SOL    HW118798   0.583   8.046   4.499
 5597SOL    HW218799   0.611   8.024   4.645
 5598SOL     OW18800   1.221   8.785   4.114
 5598SOL    HW118801   1.267   8.863   4.149
 5598SOL    HW218802   1.131   8.801   4.147
 5599SOL     OW18803   1.303   8.921   4.888
 5599SOL    HW118804   1.365   8.921   4.963
 5599SOL    HW218805   1.245   8.846   4.906
 5600SOL     OW18806   1.587   8.060   4.205
 5600SOL    HW118807   1.538   8.118   4.265
 5600SOL    HW218808   1.614   8.120   4.134
 5601SOL     OW18809   0.321   8.991   5.043
 5601SOL    HW118810   0.313   8.911   4.991
 5601SOL    HW218811   0.418   9.005   5.042
 5602SOL     OW18812   0.412   8.180   5.332
 5602SOL    HW118813   0.475   8.222   5.271
 5602SOL    HW218814   0.446   8.090   5.331
 5603SOL     OW18815   1.611   8.231   5.411
 5603SOL    HW118816   1.521   8.265   5.402
 5603SOL    HW218817   1.656   8.273   5.334
 5604SOL     OW18818   0.986   7.571   5.474
 5604SOL    HW118819   1.059   7.634   5.466
 5604SOL    HW218820   1.026   7.491   5.438
 5605SOL     OW18821   0.488   7.467   5.483
 5605SOL    HW118822   0.448   7.410   5.415
 5605SOL    HW218823   0.422   7.540   5.488
 5606SOL     OW18824   0.590   8.352   4.741
 5606SOL    HW118825   0.634   8.438   4.748
 5606SOL    HW218826   0.535   8.350   4.820
 5607SOL     OW18827   1.349   8.302   4.747
 5607SOL    HW118828   1.262   8.270   4.721
 5607SOL    HW218829   1.400   8.220   4.750
 5608SOL     OW18830   1.224   7.963   3.988
 5608SOL    HW118831   1.230   7.892   4.055
 5608SOL    HW218832   1.162   8.024   4.031
 5609SOL     OW18833   0.312   7.646   4.972
 5609SOL    HW118834   0.249   7.672   5.042
 5609SOL    HW218835   0.294   7.549   4.966
 5610SOL     OW18836   0.088   8.763   5.001
 5610SOL    HW118837   0.109   8.705   5.076
 5610SOL    HW218838   0.046   8.840   5.042
 5611SOL     OW18839   0.730   8.104   4.777
 5611SOL    HW118840   0.807   8.079   4.723
 5611SOL    HW218841   0.707   8.193   4.745
 5612SOL     OW18842   1.752   8.399   5.576
 5612SOL    HW118843   1.701   8.340   5.518
 5612SOL    HW218844   1.695   8.402   5.655
 5613SOL     OW18845   0.295   7.498   4.332
 5613SOL    HW118846   0.273   7.590   4.353
 5613SOL    HW218847   0.317   7.463   4.421
 5614SOL     OW18848   1.594   7.826   4.073
 5614SOL    HW118849   1.627   7.755   4.131
 5614SOL    HW218850   1.590   7.903   4.133
 5615SOL     OW18851   1.065   8.207   4.709
 5615SOL    HW118852   1.034   8.222   4.800
 5615SOL    HW218853   1.029   8.117   4.691
 5616SOL     OW18854   0.965   8.995   5.416
 5616SOL    HW118855   0.952   9.054   5.338
 5616SOL    HW218856   1.025   8.927   5.379
 5617SOL     OW18857   1.859   8.937   5.327
 5617SOL    HW118858   1.882   8.965   5.236
 5617SOL    HW218859   1.939   8.963   5.376
 5618SOL     OW18860   0.344   8.315   5.557
 5618SOL    HW118861   0.431   8.344   5.588
 5618SOL    HW218862   0.369   8.259   5.481
 5619SOL     OW18863   1.502   7.706   3.852
 5619SOL    HW118864   1.430   7.651   3.888
 5619SOL    HW218865   1.541   7.747   3.933
 5620SOL     OW18866   1.300   8.287   3.753
 5620SOL    HW118867   1.349   8.205   3.771
 5620SOL    HW218868   1.325   8.305   3.660
 5621SOL     OW18869   1.070   8.807   4.578
 5621SOL    HW118870   1.086   8.734   4.515
 5621SOL    HW218871   1.135   8.875   4.554
 5622SOL     OW18872   0.293   8.278   4.680
 5622SOL    HW118873   0.385   8.289   4.653
 5622SOL    HW218874   0.293   8.187   4.715
 5623SOL     OW18875   0.334   7.999   4.724
 5623SOL    HW118876   0.297   7.909   4.713
 5623SOL    HW218877   0.410   7.996   4.661
 5624SOL     OW18878   1.159   7.804   5.425
 5624SOL    HW118879   1.111   7.858   5.491
 5624SOL    HW218880   1.245   7.849   5.423
 5625SOL     OW18881   1.161   7.651   5.199
 5625SOL    HW118882   1.166   7.709   5.277
 5625SOL    HW218883   1.214   7.699   5.135
 5626SOL     OW18884  11.097   8.782   3.922
 5626SOL    HW118885  11.009   8.792   3.884
 5626SOL    HW218886  11.091   8.693   3.963
 5627SOL     OW18887   0.143   9.245   4.688
 5627SOL    HW118888   0.093   9.204   4.616
 5627SOL    HW218889   0.229   9.263   4.642
 5628SOL     OW18890   0.474   8.986   4.665
 5628SOL    HW118891   0.541   9.048   4.698
 5628SOL    HW218892   0.525   8.943   4.593
 5629SOL     OW18893   0.957   8.228   4.963
 5629SOL    HW118894   1.013   8.195   5.035
 5629SOL    HW218895   0.874   8.182   4.982
 5630SOL     OW18896  11.094   8.047   4.819
 5630SOL    HW118897   0.056   8.001   4.763
 5630SOL    HW218898   0.014   8.013   4.907
 5631SOL     OW18899   0.216   7.983   5.476
 5631SOL    HW118900   0.268   7.933   5.411
 5631SOL    HW218901   0.171   8.048   5.418
 5632SOL     OW18902   1.361   8.365   5.373
 5632SOL    HW118903   1.390   8.458   5.373
 5632SOL    HW218904   1.365   8.342   5.279
 5633SOL     OW18905   0.802   8.009   4.124
 5633SOL    HW118906   0.822   7.952   4.047
 5633SOL    HW218907   0.725   8.059   4.093
 5634SOL     OW18908   1.644   8.067   4.928
 5634SOL    HW118909   1.625   7.999   4.993
 5634SOL    HW218910   1.730   8.037   4.892
 5635SOL     OW18911   0.265   8.981   5.446
 5635SOL    HW118912   0.235   9.055   5.502
 5635SOL    HW218913   0.243   8.905   5.502
 5636SOL     OW18914   0.689   7.922   4.987
 5636SOL    HW118915   0.647   7.842   4.950
 5636SOL    HW218916   0.687   7.985   4.912
 5637SOL     OW18917   0.898   9.128   5.194
 5637SOL    HW118918   0.895   9.097   5.103
 5637SOL    HW218919   0.907   9.225   5.184
 5638SOL     OW18920   0.454   7.928   3.920
 5638SOL    HW118921   0.519   8.000   3.915
 5638SOL    HW218922   0.371   7.979   3.914
 5639SOL     OW18923   0.179   8.566   5.210
 5639SOL    HW118924   0.176   8.495   5.277
 5639SOL    HW218925   0.176   8.515   5.126
 5640SOL     OW18926   1.324   8.493   4.949
 5640SOL    HW118927   1.345   8.432   4.876
 5640SOL    HW218928   1.258   8.552   4.907
 5641SOL     OW18929   1.315   8.298   4.022
 5641SOL    HW118930   1.231   8.273   4.063
 5641SOL    HW218931   1.293   8.301   3.927
 5642SOL     OW18932   1.756   9.191   4.855
 5642SOL    HW118933   1.829   9.219   4.797
 5642SOL    HW218934   1.752   9.094   4.835
 5643SOL     OW18935   1.232   9.180   4.840
 5643SOL    HW118936   1.311   9.209   4.792
 5643SOL    HW218937   1.248   9.084   4.847
 5644SOL     OW18938   0.095   8.753   4.731
 5644SOL    HW118939   0.089   8.755   4.829
 5644SOL    HW218940   0.028   8.687   4.708
 5645SOL     OW18941   0.688   9.100   5.460
 5645SOL    HW118942   0.631   9.178   5.459
 5645SOL    HW218943   0.758   9.129   5.397
 5646SOL     OW18944   1.680   7.588   4.217
 5646SOL    HW118945   1.755   7.571   4.157
 5646SOL    HW218946   1.676   7.506   4.269
 5647SOL     OW18947   1.357   9.017   4.202
 5647SOL    HW118948   1.424   9.035   4.133
 5647SOL    HW218949   1.323   9.106   4.222
 5648SOL     OW18950   0.179   9.230   5.564
 5648SOL    HW118951   0.125   9.169   5.617
 5648SOL    HW218952   0.220   9.284   5.633
 5649SOL     OW18953   1.250   8.367   4.384
 5649SOL    HW118954   1.331   8.316   4.405
 5649SOL    HW218955   1.288   8.447   4.344
 5650SOL     OW18956   0.817   8.703   5.169
 5650SOL    HW118957   0.792   8.754   5.247
 5650SOL    HW218958   0.747   8.725   5.106
 5651SOL     OW18959   0.676   9.059   3.882
 5651SOL    HW118960   0.679   9.074   3.785
 5651SOL    HW218961   0.618   8.979   3.886
 5652SOL     OW18962   1.621   9.172   5.116
 5652SOL    HW118963   1.667   9.182   5.030
 5652SOL    HW218964   1.612   9.265   5.147
 5653SOL     OW18965   1.835   7.612   4.698
 5653SOL    HW118966   1.865   7.528   4.658
 5653SOL    HW218967   1.750   7.630   4.651
 5654SOL     OW18968   0.257   7.748   4.428
 5654SOL    HW118969   0.164   7.773   4.412
 5654SOL    HW218970   0.263   7.754   4.524
 5655SOL     OW18971   1.181   9.059   3.749
 5655SOL    HW118972   1.190   8.965   3.768
 5655SOL    HW218973   1.124   9.061   3.669
 5656SOL     OW18974   0.802   8.434   5.105
 5656SOL    HW118975   0.846   8.414   5.022
 5656SOL    HW218976   0.822   8.527   5.122
 5657SOL     OW18977   0.923   8.362   3.998
 5657SOL    HW118978   0.997   8.400   3.946
 5657SOL    HW218979   0.961   8.282   4.036
 5658SOL     OW18980   1.502   9.057   3.765
 5658SOL    HW118981   1.408   9.070   3.753
 5658SOL    HW218982   1.537   9.065   3.674
 5659SOL     OW18983   0.391   8.734   5.187
 5659SOL    HW118984   0.345   8.819   5.189
 5659SOL    HW218985   0.318   8.669   5.184
 5660SOL     OW18986   1.598   8.752   4.981
 5660SOL    HW118987   1.663   8.733   5.050
 5660SOL    HW218988   1.547   8.826   5.021
 5661SOL     OW18989   1.043   8.560   4.445
 5661SOL    HW118990   0.974   8.505   4.486
 5661SOL    HW218991   1.106   8.492   4.413
 5662SOL     OW18992   1.036   7.677   4.717
 5662SOL    HW118993   1.023   7.636   4.629
 5662SOL    HW218994   1.032   7.599   4.775
 5663SOL     OW18995   0.613   8.922   4.215
 5663SOL    HW118996   0.674   8.890   4.146
 5663SOL    HW218997   0.545   8.967   4.163
 5664SOL     OW18998   1.709   7.818   5.111
 5664SOL    HW118999   1.770   7.893   5.103
 5664SOL    HW219000   1.753   7.751   5.053
 5665SOL     OW19001   0.249   8.794   3.998
 5665SOL    HW119002   0.152   8.799   3.984
 5665SOL    HW219003   0.257   8.810   4.094
 5666SOL     OW19004   0.133   8.453   5.477
 5666SOL    HW119005   0.055   8.406   5.511
 5666SOL    HW219006   0.207   8.398   5.511
 5667SOL     OW19007   0.684   7.641   5.212
 5667SOL    HW119008   0.772   7.609   5.185
 5667SOL    HW219009   0.702   7.677   5.301
 5668SOL     OW19010   0.095   7.785   3.771
 5668SOL    HW119011   0.002   7.782   3.745
 5668SOL    HW219012   0.126   7.859   3.717
 5669SOL     OW19013   1.452   8.303   5.117
 5669SOL    HW119014   1.413   8.365   5.054
 5669SOL    HW219015   1.547   8.324   5.106
 5670SOL     OW19016   0.075   7.613   4.028
 5670SOL    HW119017   0.078   7.683   3.962
 5670SOL    HW219018   0.154   7.560   4.005
 5671SOL     OW19019   1.210   8.788   3.839
 5671SOL    HW119020   1.127   8.739   3.844
 5671SOL    HW219021   1.233   8.797   3.933
 5672SOL     OW19022   0.604   8.259   5.152
 5672SOL    HW119023   0.663   8.336   5.140
 5672SOL    HW219024   0.673   8.190   5.165
 5673SOL     OW19025   1.513   9.198   4.683
 5673SOL    HW119026   1.546   9.247   4.607
 5673SOL    HW219027   1.591   9.193   4.740
 5674SOL     OW19028   0.714   8.000   5.434
 5674SOL    HW119029   0.771   8.055   5.491
 5674SOL    HW219030   0.732   7.909   5.463
 5675SOL     OW19031   1.457   8.633   5.353
 5675SOL    HW119032   1.454   8.633   5.451
 5675SOL    HW219033   1.553   8.649   5.337
 5676SOL     OW19034   0.387   9.175   5.286
 5676SOL    HW119035   0.302   9.217   5.265
 5676SOL    HW219036   0.356   9.096   5.334
 5677SOL     OW19037   1.693   8.334   4.954
 5677SOL    HW119038   1.665   8.245   4.926
 5677SOL    HW219039   1.653   8.393   4.887
 5678SOL     OW19040   1.211   7.780   4.198
 5678SOL    HW119041   1.275   7.707   4.190
 5678SOL    HW219042   1.249   7.831   4.272
 5679SOL     OW19043   0.611   8.189   4.379
 5679SOL    HW119044   0.639   8.282   4.374
 5679SOL    HW219045   0.542   8.185   4.311
 5680SOL     OW19046   1.778   7.828   5.370
 5680SOL    HW119047   1.754   7.839   5.276
 5680SOL    HW219048   1.699   7.779   5.403
 5681SOL     OW19049   1.730   8.382   5.219
 5681SOL    HW119050   1.744   8.478   5.221
 5681SOL    HW219051   1.744   8.361   5.125
 5682SOL     OW19052   0.859   8.824   3.762
 5682SOL    HW119053   0.841   8.839   3.856
 5682SOL    HW219054   0.892   8.910   3.730
 5683SOL     OW19055   0.644   9.248   4.661
 5683SOL    HW119056   0.635   9.344   4.643
 5683SOL    HW219057   0.740   9.235   4.659
 5684SOL     OW19058   0.873   8.392   4.579
 5684SOL    HW119059   0.923   8.322   4.625
 5684SOL    HW219060   0.854   8.455   4.651
 5685SOL     OW19061   1.105   8.458   3.824
 5685SOL    HW119062   1.066   8.498   3.745
 5685SOL    HW219063   1.169   8.395   3.785
 5686SOL     OW19064   1.867   9.004   4.560
 5686SOL    HW119065   1.772   9.000   4.546
 5686SOL    HW219066   1.883   8.930   4.620
 5687SOL     OW19067   0.217   8.746   5.581
 5687SOL    HW119068   0.180   8.657   5.569
 5687SOL    HW219069   0.221   8.752   5.679
 5688SOL     OW19070   0.081   8.697   4.397
 5688SOL    HW119071   0.047   8.610   4.422
 5688SOL    HW219072   0.146   8.673   4.330
 5689SOL     OW19073   0.691   8.842   5.393
 5689SOL    HW119074   0.602   8.802   5.385
 5689SOL    HW219075   0.670   8.937   5.402
 5690SOL     OW19076   1.816   7.622   4.957
 5690SOL    HW119077   1.839   7.529   4.965
 5690SOL    HW219078   1.819   7.633   4.859
 5691SOL     OW19079   0.431   7.878   4.249
 5691SOL    HW119080   0.466   7.809   4.191
 5691SOL    HW219081   0.382   7.828   4.317
 5692SOL     OW19082   1.722   8.933   4.803
 5692SOL    HW119083   1.637   8.913   4.762
 5692SOL    HW219084   1.719   8.874   4.880
 5693SOL     OW19085   0.319   8.001   4.998
 5693SOL    HW119086   0.371   7.930   5.039
 5693SOL    HW219087   0.327   7.978   4.903
 5694SOL     OW19088   0.832   9.053   4.399
 5694SOL    HW119089   0.819   9.128   4.337
 5694SOL    HW219090   0.749   9.004   4.390
 5695SOL     OW19091   1.442   7.690   4.828
 5695SOL    HW119092   1.481   7.613   4.871
 5695SOL    HW219093   1.397   7.737   4.901
 5696SOL     OW19094   1.022   7.456   4.875
 5696SOL    HW119095   0.964   7.382   4.855
 5696SOL    HW219096   1.110   7.413   4.871
 5697SOL     OW19097   0.796   8.783   4.038
 5697SOL    HW119098   0.768   8.690   4.038
 5697SOL    HW219099   0.866   8.784   4.104
 5698SOL     OW19100   0.592   8.996   5.005
 5698SOL    HW119101   0.599   9.086   5.043
 5698SOL    HW219102   0.686   8.982   4.982
 5699SOL     OW19103   1.331   7.487   3.922
 5699SOL    HW119104   1.351   7.431   3.845
 5699SOL    HW219105   1.242   7.452   3.947
 5700SOL     OW19106   1.307   7.918   4.412
 5700SOL    HW119107   1.249   7.996   4.409
 5700SOL    HW219108   1.283   7.876   4.497
 5701SOL     OW19109   1.597   7.654   4.594
 5701SOL    HW119110   1.527   7.673   4.659
 5701SOL    HW219111   1.597   7.734   4.538
 5702SOL     OW19112   0.046   8.526   4.033
 5702SOL    HW119113   0.139   8.523   4.006
 5702SOL    HW219114   0.029   8.433   4.055
 5703SOL     OW19115   0.890   9.091   4.057
 5703SOL    HW119116   0.816   9.078   3.995
 5703SOL    HW219117   0.863   9.171   4.107
 5704SOL     OW19118   0.229   7.745   6.590
 5704SOL    HW119119   0.267   7.717   6.676
 5704SOL    HW219120   0.160   7.678   6.580
 5705SOL     OW19121  11.096   7.821   6.226
 5705SOL    HW119122  11.031   7.841   6.294
 5705SOL    HW219123  11.070   7.731   6.197
 5706SOL     OW19124   0.565   8.744   6.774
 5706SOL    HW119125   0.478   8.749   6.732
 5706SOL    HW219126   0.577   8.835   6.806
 5707SOL     OW19127   1.530   8.980   6.299
 5707SOL    HW119128   1.499   8.947   6.386
 5707SOL    HW219129   1.457   8.962   6.238
 5708SOL     OW19130   1.127   8.134   6.298
 5708SOL    HW119131   1.157   8.222   6.269
 5708SOL    HW219132   1.093   8.153   6.387
 5709SOL     OW19133   1.767   8.064   5.828
 5709SOL    HW119134   1.746   8.061   5.732
 5709SOL    HW219135   1.720   7.986   5.861
 5710SOL     OW19136   0.749   8.612   6.629
 5710SOL    HW119137   0.682   8.656   6.685
 5710SOL    HW219138   0.785   8.690   6.582
 5711SOL     OW19139   0.838   8.289   7.398
 5711SOL    HW119140   0.879   8.332   7.474
 5711SOL    HW219141   0.902   8.305   7.327
 5712SOL     OW19142   0.680   8.459   6.227
 5712SOL    HW119143   0.744   8.446   6.300
 5712SOL    HW219144   0.610   8.512   6.270
 5713SOL     OW19145   0.710   8.608   7.381
 5713SOL    HW119146   0.757   8.687   7.414
 5713SOL    HW219147   0.621   8.643   7.363
 5714SOL     OW19148   0.321   8.879   6.651
 5714SOL    HW119149   0.246   8.846   6.600
 5714SOL    HW219150   0.369   8.932   6.585
 5715SOL     OW19151   1.470   8.957   6.952
 5715SOL    HW119152   1.526   9.037   6.966
 5715SOL    HW219153   1.410   8.960   7.028
 5716SOL     OW19154   0.455   7.828   7.094
 5716SOL    HW119155   0.535   7.772   7.090
 5716SOL    HW219156   0.383   7.767   7.077
 5717SOL     OW19157   1.617   7.900   6.322
 5717SOL    HW119158   1.541   7.940   6.277
 5717SOL    HW219159   1.629   7.959   6.397
 5718SOL     OW19160   0.232   9.109   6.056
 5718SOL    HW119161   0.220   9.188   6.112
 5718SOL    HW219162   0.290   9.144   5.986
 5719SOL     OW19163   1.118   8.801   7.249
 5719SOL    HW119164   1.172   8.793   7.329
 5719SOL    HW219165   1.075   8.714   7.249
 5720SOL     OW19166   0.223   8.850   6.105
 5720SOL    HW119167   0.228   8.947   6.096
 5720SOL    HW219168   0.160   8.841   6.178
 5721SOL     OW19169   0.258   8.564   6.486
 5721SOL    HW119170   0.243   8.482   6.536
 5721SOL    HW219171   0.195   8.626   6.527
 5722SOL     OW19172   0.615   9.247   6.993
 5722SOL    HW119173   0.543   9.221   7.053
 5722SOL    HW219174   0.636   9.338   7.025
 5723SOL     OW19175   0.593   8.435   5.710
 5723SOL    HW119176   0.638   8.493   5.646
 5723SOL    HW219177   0.633   8.467   5.793
 5724SOL     OW19178   1.609   7.555   7.086
 5724SOL    HW119179   1.612   7.631   7.026
 5724SOL    HW219180   1.620   7.597   7.172
 5725SOL     OW19181   0.136   8.079   6.149
 5725SOL    HW119182   0.105   7.987   6.156
 5725SOL    HW219183   0.105   8.118   6.232
 5726SOL     OW19184   1.846   9.184   5.938
 5726SOL    HW119185   1.926   9.166   5.993
 5726SOL    HW219186   1.861   9.277   5.913
 5727SOL     OW19187   0.056   9.040   5.704
 5727SOL    HW119188   0.032   8.949   5.726
 5727SOL    HW219189   0.021   9.090   5.778
 5728SOL     OW19190   1.671   8.360   6.233
 5728SOL    HW119191   1.754   8.328   6.196
 5728SOL    HW219192   1.641   8.420   6.163
 5729SOL     OW19193   1.639   8.568   6.027
 5729SOL    HW119194   1.729   8.566   5.991
 5729SOL    HW219195   1.649   8.633   6.100
 5730SOL     OW19196   0.129   8.194   7.169
 5730SOL    HW119197   0.186   8.243   7.229
 5730SOL    HW219198   0.062   8.261   7.144
 5731SOL     OW19199   0.617   8.843   6.352
 5731SOL    HW119200   0.579   8.754   6.369
 5731SOL    HW219201   0.602   8.849   6.256
 5732SOL     OW19202   1.275   8.672   7.009
 5732SOL    HW119203   1.309   8.602   6.950
 5732SOL    HW219204   1.334   8.662   7.086
 5733SOL     OW19205   0.816   7.444   6.079
 5733SOL    HW119206   0.850   7.535   6.078
 5733SOL    HW219207   0.719   7.457   6.090
 5734SOL     OW19208   0.171   8.439   6.825
 5734SOL    HW119209   0.252   8.386   6.820
 5734SOL    HW219210   0.103   8.375   6.798
 5735SOL     OW19211   1.539   8.417   5.780
 5735SOL    HW119212   1.458   8.372   5.812
 5735SOL    HW219213   1.577   8.450   5.862
 5736SOL     OW19214   1.176   9.243   7.200
 5736SOL    HW119215   1.187   9.308   7.129
 5736SOL    HW219216   1.198   9.160   7.156
 5737SOL     OW19217   0.328   7.697   7.376
 5737SOL    HW119218   0.394   7.750   7.422
 5737SOL    HW219219   0.247   7.717   7.427
 5738SOL     OW19220   1.469   8.867   6.543
 5738SOL    HW119221   1.409   8.890   6.617
 5738SOL    HW219222   1.440   8.776   6.521
 5739SOL     OW19223   1.661   9.187   6.197
 5739SOL    HW119224   1.665   9.152   6.107
 5739SOL    HW219225   1.619   9.113   6.245
 5740SOL     OW19226   0.583   8.167   5.835
 5740SOL    HW119227   0.604   8.258   5.812
 5740SOL    HW219228   0.523   8.177   5.912
 5741SOL     OW19229   1.267   7.802   6.520
 5741SOL    HW119230   1.182   7.760   6.538
 5741SOL    HW219231   1.327   7.751   6.579
 5742SOL     OW19232   1.570   9.094   5.892
 5742SOL    HW119233   1.662   9.122   5.904
 5742SOL    HW219234   1.568   9.084   5.795
 5743SOL     OW19235   0.766   8.085   7.052
 5743SOL    HW119236   0.763   8.041   7.141
 5743SOL    HW219237   0.740   8.011   6.993
 5744SOL     OW19238   1.397   7.927   7.259
 5744SOL    HW119239   1.401   7.982   7.340
 5744SOL    HW219240   1.459   7.855   7.281
 5745SOL     OW19241   0.961   8.330   7.154
 5745SOL    HW119242   1.000   8.246   7.122
 5745SOL    HW219243   0.940   8.374   7.068
 5746SOL     OW19244   0.984   7.849   6.805
 5746SOL    HW119245   0.892   7.853   6.834
 5746SOL    HW219246   0.981   7.784   6.733
 5747SOL     OW19247   1.050   8.123   5.989
 5747SOL    HW119248   1.068   8.145   6.082
 5747SOL    HW219249   0.963   8.079   5.996
 5748SOL     OW19250   0.082   8.252   6.354
 5748SOL    HW119251   0.162   8.237   6.407
 5748SOL    HW219252   0.045   8.330   6.400
 5749SOL     OW19253   0.884   7.845   5.788
 5749SOL    HW119254   0.936   7.895   5.723
 5749SOL    HW219255   0.899   7.755   5.759
 5750SOL     OW19256   1.712   8.032   7.427
 5750SOL    HW119257   1.675   8.108   7.377
 5750SOL    HW219258   1.747   7.979   7.354
 5751SOL     OW19259   1.356   8.605   6.145
 5751SOL    HW119260   1.435   8.593   6.090
 5751SOL    HW219261   1.305   8.670   6.093
 5752SOL     OW19262   0.593   7.655   6.474
 5752SOL    HW119263   0.588   7.656   6.572
 5752SOL    HW219264   0.576   7.747   6.452
 5753SOL     OW19265   0.977   8.892   6.074
 5753SOL    HW119266   0.948   8.959   6.009
 5753SOL    HW219267   0.968   8.940   6.158
 5754SOL     OW19268   0.379   9.262   6.429
 5754SOL    HW119269   0.398   9.169   6.453
 5754SOL    HW219270   0.466   9.302   6.440
 5755SOL     OW19271   1.812   8.495   6.455
 5755SOL    HW119272   1.753   8.485   6.379
 5755SOL    HW219273   1.751   8.488   6.530
 5756SOL     OW19274   1.218   9.005   7.081
 5756SOL    HW119275   1.195   8.938   7.148
 5756SOL    HW219276   1.177   8.966   7.002
 5757SOL     OW19277   0.320   8.415   5.833
 5757SOL    HW119278   0.403   8.435   5.788
 5757SOL    HW219279   0.281   8.347   5.778
 5758SOL     OW19280   1.468   8.204   6.301
 5758SOL    HW119281   1.467   8.180   6.395
 5758SOL    HW219282   1.548   8.261   6.295
 5759SOL     OW19283   0.461   8.713   7.315
 5759SOL    HW119284   0.431   8.721   7.222
 5759SOL    HW219285   0.378   8.728   7.362
 5760SOL     OW19286   1.092   9.235   5.833
 5760SOL    HW119287   1.028   9.176   5.878
 5760SOL    HW219288   1.110   9.186   5.750
 5761SOL     OW19289   0.177   7.723   7.095
 5761SOL    HW119290   0.095   7.763   7.130
 5761SOL    HW219291   0.201   7.664   7.168
 5762SOL     OW19292   1.625   8.808   5.679
 5762SOL    HW119293   1.587   8.892   5.650
 5762SOL    HW219294   1.566   8.741   5.640
 5763SOL     OW19295   0.446   9.194   5.904
 5763SOL    HW119296   0.492   9.238   5.978
 5763SOL    HW219297   0.520   9.171   5.846
 5764SOL     OW19298   1.390   7.591   6.047
 5764SOL    HW119299   1.384   7.543   5.963
 5764SOL    HW219300   1.486   7.599   6.059
 5765SOL     OW19301   0.251   9.245   6.819
 5765SOL    HW119302   0.304   9.166   6.839
 5765SOL    HW219303   0.223   9.228   6.728
 5766SOL     OW19304   0.951   9.147   6.469
 5766SOL    HW119305   1.032   9.099   6.491
 5766SOL    HW219306   0.915   9.093   6.396
 5767SOL     OW19307   0.407   8.146   6.043
 5767SOL    HW119308   0.427   8.054   6.070
 5767SOL    HW219309   0.318   8.156   6.079
 5768SOL     OW19310   1.548   7.707   7.318
 5768SOL    HW119311   1.543   7.714   7.417
 5768SOL    HW219312   1.497   7.626   7.305
 5769SOL     OW19313   0.640   7.581   5.677
 5769SOL    HW119314   0.704   7.514   5.707
 5769SOL    HW219315   0.590   7.531   5.609
 5770SOL     OW19316   0.760   7.731   7.339
 5770SOL    HW119317   0.841   7.677   7.338
 5770SOL    HW219318   0.711   7.692   7.413
 5771SOL     OW19319   0.877   8.989   6.783
 5771SOL    HW119320   0.874   8.962   6.689
 5771SOL    HW219321   0.938   8.924   6.822
 5772SOL     OW19322   1.331   8.049   7.019
 5772SOL    HW119323   1.368   8.013   7.102
 5772SOL    HW219324   1.392   8.122   6.999
 5773SOL     OW19325   0.831   8.853   6.530
 5773SOL    HW119326   0.914   8.834   6.482
 5773SOL    HW219327   0.766   8.856   6.458
 5774SOL     OW19328   0.945   7.970   6.501
 5774SOL    HW119329   0.923   7.959   6.405
 5774SOL    HW219330   0.969   7.880   6.525
 5775SOL     OW19331   0.556   7.498   6.088
 5775SOL    HW119332   0.472   7.498   6.137
 5775SOL    HW219333   0.545   7.575   6.029
 5776SOL     OW19334   1.443   8.618   5.612
 5776SOL    HW119335   1.474   8.545   5.669
 5776SOL    HW219336   1.362   8.647   5.656
 5777SOL     OW19337   0.287   7.486   5.785
 5777SOL    HW119338   0.351   7.540   5.737
 5777SOL    HW219339   0.345   7.424   5.834
 5778SOL     OW19340   0.935   7.701   6.081
 5778SOL    HW119341   0.921   7.752   6.000
 5778SOL    HW219342   1.031   7.711   6.092
 5779SOL     OW19343   1.072   8.116   7.039
 5779SOL    HW119344   1.034   8.028   7.048
 5779SOL    HW219345   1.168   8.099   7.037
 5780SOL     OW19346   1.227   9.029   6.375
 5780SOL    HW119347   1.222   9.094   6.303
 5780SOL    HW219348   1.305   9.056   6.423
 5781SOL     OW19349   0.460   8.605   6.319
 5781SOL    HW119350   0.385   8.591   6.381
 5781SOL    HW219351   0.418   8.582   6.233
 5782SOL     OW19352   1.243   9.263   6.191
 5782SOL    HW119353   1.304   9.312   6.131
 5782SOL    HW219354   1.220   9.332   6.254
 5783SOL     OW19355   1.062   7.977   5.616
 5783SOL    HW119356   1.018   8.060   5.594
 5783SOL    HW219357   1.138   8.003   5.671
 5784SOL     OW19358   0.067   8.022   6.969
 5784SOL    HW119359   0.157   7.994   6.947
 5784SOL    HW219360   0.083   8.090   7.037
 5785SOL     OW19361   0.583   7.666   6.747
 5785SOL    HW119362   0.629   7.597   6.795
 5785SOL    HW219363   0.492   7.661   6.782
 5786SOL     OW19364   0.879   7.912   6.251
 5786SOL    HW119365   0.843   7.961   6.176
 5786SOL    HW219366   0.892   7.823   6.214
 5787SOL     OW19367   1.043   7.506   6.352
 5787SOL    HW119368   0.977   7.509   6.281
 5787SOL    HW219369   1.012   7.429   6.405
 5788SOL     OW19370   1.417   8.618   6.466
 5788SOL    HW119371   1.351   8.550   6.484
 5788SOL    HW219372   1.425   8.613   6.369
 5789SOL     OW19373   1.451   8.038   6.588
 5789SOL    HW119374   1.404   7.954   6.586
 5789SOL    HW219375   1.520   8.025   6.656
 5790SOL     OW19376   1.836   8.276   5.987
 5790SOL    HW119377   1.893   8.219   6.043
 5790SOL    HW219378   1.818   8.215   5.913
 5791SOL     OW19379   0.496   8.876   5.697
 5791SOL    HW119380   0.434   8.852   5.767
 5791SOL    HW219381   0.450   8.844   5.619
 5792SOL     OW19382   1.672   8.731   6.242
 5792SOL    HW119383   1.769   8.738   6.244
 5792SOL    HW219384   1.641   8.819   6.267
 5793SOL     OW19385   1.416   8.042   5.648
 5793SOL    HW119386   1.370   8.012   5.729
 5793SOL    HW219387   1.508   8.021   5.668
 5794SOL     OW19388   0.529   7.690   5.900
 5794SOL    HW119389   0.570   7.646   5.823
 5794SOL    HW219390   0.517   7.779   5.866
 5795SOL     OW19391   1.729   8.679   7.166
 5795SOL    HW119392   1.817   8.639   7.172
 5795SOL    HW219393   1.751   8.773   7.177
 5796SOL     OW19394   1.057   8.807   6.924
 5796SOL    HW119395   0.981   8.775   6.975
 5796SOL    HW219396   1.130   8.755   6.965
 5797SOL     OW19397   1.610   9.075   7.226
 5797SOL    HW119398   1.615   9.117   7.138
 5797SOL    HW219399   1.692   9.023   7.226
 5798SOL     OW19400   1.127   8.676   6.682
 5798SOL    HW119401   1.070   8.712   6.751
 5798SOL    HW219402   1.096   8.722   6.603
 5799SOL     OW19403   1.595   8.544   6.664
 5799SOL    HW119404   1.605   8.609   6.737
 5799SOL    HW219405   1.536   8.592   6.603
 5800SOL     OW19406   0.920   7.543   6.988
 5800SOL    HW119407   0.953   7.518   6.900
 5800SOL    HW219408   0.999   7.585   7.028
 5801SOL     OW19409   0.991   8.564   7.316
 5801SOL    HW119410   0.897   8.579   7.339
 5801SOL    HW219411   0.986   8.489   7.255
 5802SOL     OW19412   0.719   8.502   5.952
 5802SOL    HW119413   0.712   8.487   6.048
 5802SOL    HW219414   0.796   8.448   5.927
 5803SOL     OW19415   0.378   8.257   6.855
 5803SOL    HW119416   0.462   8.251   6.808
 5803SOL    HW219417   0.348   8.164   6.854
 5804SOL     OW19418   1.286   7.835   6.857
 5804SOL    HW119419   1.305   7.914   6.912
 5804SOL    HW219420   1.196   7.853   6.826
 5805SOL     OW19421   0.046   9.029   6.952
 5805SOL    HW119422   0.012   9.089   6.884
 5805SOL    HW219423   0.142   9.033   6.937
 5806SOL     OW19424   0.359   8.544   6.080
 5806SOL    HW119425   0.376   8.617   6.018
 5806SOL    HW219426   0.338   8.471   6.020
 5807SOL     OW19427   0.560   7.991   6.438
 5807SOL    HW119428   0.591   8.047   6.365
 5807SOL    HW219429   0.616   8.018   6.512
 5808SOL     OW19430   1.214   8.790   5.986
 5808SOL    HW119431   1.269   8.865   6.015
 5808SOL    HW219432   1.128   8.814   6.025
 5809SOL     OW19433   1.299   8.922   6.750
 5809SOL    HW119434   1.361   8.933   6.825
 5809SOL    HW219435   1.245   8.847   6.778
 5810SOL     OW19436   1.583   8.071   6.051
 5810SOL    HW119437   1.546   8.130   6.119
 5810SOL    HW219438   1.622   8.133   5.989
 5811SOL     OW19439   0.327   8.985   6.894
 5811SOL    HW119440   0.319   8.934   6.811
 5811SOL    HW219441   0.424   8.996   6.897
 5812SOL     OW19442   0.459   8.176   7.188
 5812SOL    HW119443   0.401   8.185   7.112
 5812SOL    HW219444   0.473   8.081   7.194
 5813SOL     OW19445   1.627   8.225   7.268
 5813SOL    HW119446   1.538   8.266   7.266
 5813SOL    HW219447   1.671   8.272   7.194
 5814SOL     OW19448   0.981   7.561   7.333
 5814SOL    HW119449   1.049   7.629   7.325
 5814SOL    HW219450   1.031   7.483   7.303
 5815SOL     OW19451   0.492   7.470   7.344
 5815SOL    HW119452   0.452   7.410   7.278
 5815SOL    HW219453   0.426   7.542   7.347
 5816SOL     OW19454   0.599   8.345   6.652
 5816SOL    HW119455   0.641   8.433   6.644
 5816SOL    HW219456   0.506   8.366   6.639
 5817SOL     OW19457   1.341   8.304   6.607
 5817SOL    HW119458   1.253   8.269   6.588
 5817SOL    HW219459   1.392   8.222   6.616
 5818SOL     OW19460   1.239   7.958   5.847
 5818SOL    HW119461   1.247   7.883   5.908
 5818SOL    HW219462   1.175   8.013   5.895
 5819SOL     OW19463   0.315   7.646   6.835
 5819SOL    HW119464   0.246   7.669   6.900
 5819SOL    HW219465   0.302   7.549   6.827
 5820SOL     OW19466   0.059   8.765   6.854
 5820SOL    HW119467   0.118   8.713   6.911
 5820SOL    HW219468   0.052   8.850   6.900
 5821SOL     OW19469   0.739   8.093   6.654
 5821SOL    HW119470   0.812   8.066   6.595
 5821SOL    HW219471   0.712   8.181   6.624
 5822SOL     OW19472   1.762   8.397   7.436
 5822SOL    HW119473   1.710   8.335   7.382
 5822SOL    HW219474   1.705   8.410   7.513
 5823SOL     OW19475   0.293   7.504   6.191
 5823SOL    HW119476   0.269   7.594   6.217
 5823SOL    HW219477   0.315   7.464   6.279
 5824SOL     OW19478   1.587   7.832   5.933
 5824SOL    HW119479   1.628   7.768   5.992
 5824SOL    HW219480   1.581   7.912   5.989
 5825SOL     OW19481   1.064   8.205   6.559
 5825SOL    HW119482   1.035   8.224   6.650
 5825SOL    HW219483   1.037   8.111   6.549
 5826SOL     OW19484   0.973   9.024   7.283
 5826SOL    HW119485   0.961   9.075   7.200
 5826SOL    HW219486   1.010   8.940   7.252
 5827SOL     OW19487   1.847   8.942   7.190
 5827SOL    HW119488   1.874   8.971   7.101
 5827SOL    HW219489   1.925   8.967   7.243
 5828SOL     OW19490   0.367   8.351   7.376
 5828SOL    HW119491   0.443   8.375   7.432
 5828SOL    HW219492   0.400   8.270   7.332
 5829SOL     OW19493   1.510   7.705   5.710
 5829SOL    HW119494   1.438   7.652   5.747
 5829SOL    HW219495   1.545   7.751   5.790
 5830SOL     OW19496   1.302   8.283   5.620
 5830SOL    HW119497   1.353   8.199   5.628
 5830SOL    HW219498   1.320   8.306   5.527
 5831SOL     OW19499   1.069   8.801   6.435
 5831SOL    HW119500   1.079   8.726   6.374
 5831SOL    HW219501   1.134   8.866   6.402
 5832SOL     OW19502   0.290   8.277   6.555
 5832SOL    HW119503   0.362   8.274   6.491
 5832SOL    HW219504   0.290   8.187   6.592
 5833SOL     OW19505   0.338   7.999   6.585
 5833SOL    HW119506   0.297   7.911   6.573
 5833SOL    HW219507   0.412   7.994   6.521
 5834SOL     OW19508   1.154   7.813   7.283
 5834SOL    HW119509   1.109   7.868   7.351
 5834SOL    HW219510   1.242   7.855   7.280
 5835SOL     OW19511   1.158   7.648   7.065
 5835SOL    HW119512   1.164   7.709   7.141
 5835SOL    HW219513   1.213   7.694   6.999
 5836SOL     OW19514  11.086   8.777   5.778
 5836SOL    HW119515  10.991   8.784   5.761
 5836SOL    HW219516  11.091   8.690   5.824
 5837SOL     OW19517   0.147   9.240   6.554
 5837SOL    HW119518   0.113   9.170   6.494
 5837SOL    HW219519   0.228   9.266   6.504
 5838SOL     OW19520   0.491   9.032   6.503
 5838SOL    HW119521   0.563   9.085   6.542
 5838SOL    HW219522   0.539   8.966   6.449
 5839SOL     OW19523   0.957   8.223   6.817
 5839SOL    HW119524   1.009   8.183   6.890
 5839SOL    HW219525   0.878   8.167   6.817
 5840SOL     OW19526   0.006   8.046   6.685
 5840SOL    HW119527   0.071   7.985   6.649
 5840SOL    HW219528   0.013   8.027   6.780
 5841SOL     OW19529   0.207   7.981   7.330
 5841SOL    HW119530   0.242   7.910   7.273
 5841SOL    HW219531   0.168   8.042   7.265
 5842SOL     OW19532   1.395   8.363   7.237
 5842SOL    HW119533   1.418   8.458   7.239
 5842SOL    HW219534   1.391   8.346   7.141
 5843SOL     OW19535   0.792   8.022   5.976
 5843SOL    HW119536   0.814   7.957   5.906
 5843SOL    HW219537   0.722   8.074   5.935
 5844SOL     OW19538   1.640   8.063   6.794
 5844SOL    HW119539   1.622   7.999   6.864
 5844SOL    HW219540   1.724   8.030   6.758
 5845SOL     OW19541   0.242   8.990   7.300
 5845SOL    HW119542   0.227   9.056   7.369
 5845SOL    HW219543   0.238   8.906   7.350
 5846SOL     OW19544   0.690   7.918   6.854
 5846SOL    HW119545   0.648   7.839   6.815
 5846SOL    HW219546   0.694   7.980   6.778
 5847SOL     OW19547   0.902   9.152   7.053
 5847SOL    HW119548   0.899   9.129   6.959
 5847SOL    HW219549   0.916   9.248   7.051
 5848SOL     OW19550   0.428   7.946   5.773
 5848SOL    HW119551   0.503   8.006   5.758
 5848SOL    HW219552   0.421   7.949   5.870
 5849SOL     OW19553   0.171   8.571   7.067
 5849SOL    HW119554   0.182   8.507   7.140
 5849SOL    HW219555   0.171   8.514   6.987
 5850SOL     OW19556   1.318   8.491   6.815
 5850SOL    HW119557   1.336   8.430   6.740
 5850SOL    HW219558   1.254   8.552   6.774
 5851SOL     OW19559   1.312   8.311   5.886
 5851SOL    HW119560   1.235   8.269   5.927
 5851SOL    HW219561   1.295   8.300   5.790
 5852SOL     OW19562   1.749   9.189   6.711
 5852SOL    HW119563   1.824   9.212   6.653
 5852SOL    HW219564   1.742   9.093   6.694
 5853SOL     OW19565   1.233   9.178   6.694
 5853SOL    HW119566   1.319   9.204   6.658
 5853SOL    HW219567   1.245   9.082   6.710
 5854SOL     OW19568   0.086   8.740   6.591
 5854SOL    HW119569   0.081   8.753   6.689
 5854SOL    HW219570   0.017   8.674   6.577
 5855SOL     OW19571   0.679   9.088   7.326
 5855SOL    HW119572   0.652   9.180   7.318
 5855SOL    HW219573   0.763   9.087   7.277
 5856SOL     OW19574   1.679   7.587   6.084
 5856SOL    HW119575   1.760   7.574   6.033
 5856SOL    HW219576   1.674   7.505   6.137
 5857SOL     OW19577   1.359   9.023   6.064
 5857SOL    HW119578   1.426   9.042   5.995
 5857SOL    HW219579   1.325   9.112   6.085
 5858SOL     OW19580   0.169   9.251   7.408
 5858SOL    HW119581   0.119   9.185   7.461
 5858SOL    HW219582   0.221   9.291   7.481
 5859SOL     OW19583   1.242   8.376   6.249
 5859SOL    HW119584   1.321   8.326   6.275
 5859SOL    HW219585   1.282   8.453   6.203
 5860SOL     OW19586   0.814   8.708   7.032
 5860SOL    HW119587   0.789   8.752   7.116
 5860SOL    HW219588   0.736   8.728   6.979
 5861SOL     OW19589   0.688   9.055   5.735
 5861SOL    HW119590   0.671   9.091   5.646
 5861SOL    HW219591   0.620   8.985   5.741
 5862SOL     OW19592   1.625   9.172   6.974
 5862SOL    HW119593   1.669   9.184   6.888
 5862SOL    HW219594   1.611   9.264   7.005
 5863SOL     OW19595   1.837   7.615   6.562
 5863SOL    HW119596   1.860   7.529   6.524
 5863SOL    HW219597   1.752   7.637   6.519
 5864SOL     OW19598   0.258   7.758   6.289
 5864SOL    HW119599   0.162   7.774   6.275
 5864SOL    HW219600   0.263   7.754   6.385
 5865SOL     OW19601   1.167   9.085   5.616
 5865SOL    HW119602   1.201   8.995   5.616
 5865SOL    HW219603   1.148   9.103   5.522
 5866SOL     OW19604   0.827   8.455   6.957
 5866SOL    HW119605   0.849   8.457   6.863
 5866SOL    HW219606   0.834   8.550   6.982
 5867SOL     OW19607   0.925   8.366   5.857
 5867SOL    HW119608   1.005   8.409   5.820
 5867SOL    HW219609   0.958   8.283   5.892
 5868SOL     OW19610   1.563   9.075   5.620
 5868SOL    HW119611   1.469   9.093   5.608
 5868SOL    HW219612   1.593   9.072   5.526
 5869SOL     OW19613   0.381   8.738   7.068
 5869SOL    HW119614   0.352   8.817   7.021
 5869SOL    HW219615   0.306   8.676   7.055
 5870SOL     OW19616   1.595   8.752   6.844
 5870SOL    HW119617   1.648   8.727   6.921
 5870SOL    HW219618   1.539   8.824   6.882
 5871SOL     OW19619   1.031   8.563   6.291
 5871SOL    HW119620   0.962   8.508   6.331
 5871SOL    HW219621   1.099   8.496   6.268
 5872SOL     OW19622   1.030   7.674   6.574
 5872SOL    HW119623   1.027   7.629   6.487
 5872SOL    HW219624   1.031   7.596   6.634
 5873SOL     OW19625   0.589   8.886   6.075
 5873SOL    HW119626   0.652   8.862   6.005
 5873SOL    HW219627   0.529   8.947   6.030
 5874SOL     OW19628   1.719   7.817   6.964
 5874SOL    HW119629   1.786   7.887   6.958
 5874SOL    HW219630   1.760   7.746   6.910
 5875SOL     OW19631   0.241   8.794   5.849
 5875SOL    HW119632   0.145   8.806   5.835
 5875SOL    HW219633   0.247   8.812   5.945
 5876SOL     OW19634   0.133   8.460   7.335
 5876SOL    HW119635   0.072   8.403   7.382
 5876SOL    HW219636   0.221   8.422   7.360
 5877SOL     OW19637   0.681   7.644   7.077
 5877SOL    HW119638   0.768   7.606   7.050
 5877SOL    HW219639   0.699   7.670   7.169
 5878SOL     OW19640   0.089   7.791   5.639
 5878SOL    HW119641  11.100   7.759   5.642
 5878SOL    HW219642   0.091   7.832   5.550
 5879SOL     OW19643   1.459   8.311   6.976
 5879SOL    HW119644   1.418   8.375   6.915
 5879SOL    HW219645   1.553   8.333   6.966
 5880SOL     OW19646   0.075   7.618   5.896
 5880SOL    HW119647   0.078   7.689   5.832
 5880SOL    HW219648   0.151   7.563   5.871
 5881SOL     OW19649   1.209   8.777   5.708
 5881SOL    HW119650   1.149   8.703   5.726
 5881SOL    HW219651   1.235   8.801   5.799
 5882SOL     OW19652   1.515   9.213   6.545
 5882SOL    HW119653   1.546   9.266   6.471
 5882SOL    HW219654   1.593   9.205   6.600
 5883SOL     OW19655   0.738   8.002   7.302
 5883SOL    HW119656   0.755   8.047   7.386
 5883SOL    HW219657   0.735   7.907   7.327
 5884SOL     OW19658   1.458   8.629   7.209
 5884SOL    HW119659   1.454   8.635   7.307
 5884SOL    HW219660   1.552   8.648   7.193
 5885SOL     OW19661   0.397   9.175   7.151
 5885SOL    HW119662   0.313   9.205   7.117
 5885SOL    HW219663   0.372   9.092   7.196
 5886SOL     OW19664   1.701   8.331   6.819
 5886SOL    HW119665   1.677   8.241   6.790
 5886SOL    HW219666   1.656   8.389   6.755
 5887SOL     OW19667   1.204   7.778   6.056
 5887SOL    HW119668   1.272   7.708   6.054
 5887SOL    HW219669   1.234   7.830   6.134
 5888SOL     OW19670   0.603   8.192   6.242
 5888SOL    HW119671   0.634   8.284   6.236
 5888SOL    HW219672   0.538   8.189   6.171
 5889SOL     OW19673   1.771   7.830   7.226
 5889SOL    HW119674   1.751   7.836   7.131
 5889SOL    HW219675   1.693   7.781   7.260
 5890SOL     OW19676   1.735   8.386   7.081
 5890SOL    HW119677   1.751   8.481   7.082
 5890SOL    HW219678   1.755   8.362   6.988
 5891SOL     OW19679   0.665   9.258   6.533
 5891SOL    HW119680   0.660   9.350   6.500
 5891SOL    HW219681   0.756   9.233   6.516
 5892SOL     OW19682   0.868   8.390   6.423
 5892SOL    HW119683   0.922   8.321   6.464
 5892SOL    HW219684   0.859   8.454   6.495
 5893SOL     OW19685   1.112   8.480   5.691
 5893SOL    HW119686   1.067   8.508   5.609
 5893SOL    HW219687   1.169   8.407   5.660
 5894SOL     OW19688   1.867   9.008   6.418
 5894SOL    HW119689   1.774   9.013   6.394
 5894SOL    HW219690   1.869   8.939   6.485
 5895SOL     OW19691   0.214   8.744   7.429
 5895SOL    HW119692   0.178   8.657   7.404
 5895SOL    HW219693   0.214   8.739   7.526
 5896SOL     OW19694   0.073   8.676   6.262
 5896SOL    HW119695   0.117   8.627   6.332
 5896SOL    HW219696   0.131   8.658   6.187
 5897SOL     OW19697   0.669   8.849   7.207
 5897SOL    HW119698   0.592   8.799   7.239
 5897SOL    HW219699   0.662   8.932   7.259
 5898SOL     OW19700   1.821   7.612   6.823
 5898SOL    HW119701   1.840   7.518   6.832
 5898SOL    HW219702   1.824   7.623   6.726
 5899SOL     OW19703   0.415   7.872   6.090
 5899SOL    HW119704   0.461   7.792   6.061
 5899SOL    HW219705   0.369   7.841   6.170
 5900SOL     OW19706   1.722   8.931   6.661
 5900SOL    HW119707   1.640   8.900   6.620
 5900SOL    HW219708   1.724   8.877   6.742
 5901SOL     OW19709   0.344   7.988   6.868
 5901SOL    HW119710   0.394   7.921   6.918
 5901SOL    HW219711   0.345   7.953   6.777
 5902SOL     OW19712   0.824   9.042   6.256
 5902SOL    HW119713   0.799   9.111   6.192
 5902SOL    HW219714   0.742   8.993   6.269
 5903SOL     OW19715   1.431   7.677   6.684
 5903SOL    HW119716   1.466   7.596   6.724
 5903SOL    HW219717   1.390   7.723   6.760
 5904SOL     OW19718   1.021   7.452   6.742
 5904SOL    HW119719   0.965   7.377   6.717
 5904SOL    HW219720   1.110   7.411   6.736
 5905SOL     OW19721   0.796   8.778   5.894
 5905SOL    HW119722   0.768   8.686   5.907
 5905SOL    HW219723   0.866   8.787   5.960
 5906SOL     OW19724   0.596   9.008   6.855
 5906SOL    HW119725   0.601   9.094   6.901
 5906SOL    HW219726   0.690   8.998   6.833
 5907SOL     OW19727   1.321   7.499   5.770
 5907SOL    HW119728   1.324   7.441   5.693
 5907SOL    HW219729   1.236   7.468   5.810
 5908SOL     OW19730   1.280   7.916   6.267
 5908SOL    HW119731   1.226   7.997   6.269
 5908SOL    HW219732   1.273   7.883   6.358
 5909SOL     OW19733   1.602   7.654   6.447
 5909SOL    HW119734   1.528   7.660   6.510
 5909SOL    HW219735   1.590   7.734   6.393
 5910SOL     OW19736   0.038   8.524   5.884
 5910SOL    HW119737   0.133   8.531   5.871
 5910SOL    HW219738   0.029   8.429   5.907
 5911SOL     OW19739   0.886   9.095   5.918
 5911SOL    HW119740   0.808   9.081   5.862
 5911SOL    HW219741   0.864   9.174   5.971
 5912SOL     OW19742   0.245   8.111   7.576
 5912SOL    HW119743   0.164   8.086   7.625
 5912SOL    HW219744   0.237   8.061   7.493
 5913SOL     OW19745   0.225   7.745   8.460
 5913SOL    HW119746   0.255   7.715   8.549
 5913SOL    HW219747   0.162   7.677   8.436
 5914SOL     OW19748   0.581   8.746   8.639
 5914SOL    HW119749   0.497   8.746   8.591
 5914SOL    HW219750   0.584   8.837   8.675
 5915SOL     OW19751   1.525   8.980   8.152
 5915SOL    HW119752   1.498   8.957   8.244
 5915SOL    HW219753   1.443   8.976   8.101
 5916SOL     OW19754   1.126   8.132   8.148
 5916SOL    HW119755   1.164   8.220   8.132
 5916SOL    HW219756   1.088   8.144   8.236
 5917SOL     OW19757   1.768   8.055   7.685
 5917SOL    HW119758   1.751   8.048   7.589
 5917SOL    HW219759   1.712   7.984   7.721
 5918SOL     OW19760   0.729   8.609   8.454
 5918SOL    HW119761   0.682   8.650   8.530
 5918SOL    HW219762   0.781   8.686   8.424
 5919SOL     OW19763   0.871   8.199   9.243
 5919SOL    HW119764   0.863   8.260   9.317
 5919SOL    HW219765   0.904   8.256   9.171
 5920SOL     OW19766   0.676   8.470   8.102
 5920SOL    HW119767   0.748   8.443   8.162
 5920SOL    HW219768   0.620   8.522   8.162
 5921SOL     OW19769   0.693   8.607   9.250
 5921SOL    HW119770   0.744   8.687   9.274
 5921SOL    HW219771   0.606   8.643   9.227
 5922SOL     OW19772   0.328   8.871   8.517
 5922SOL    HW119773   0.252   8.842   8.463
 5922SOL    HW219774   0.377   8.928   8.455
 5923SOL     OW19775   1.480   8.959   8.816
 5923SOL    HW119776   1.504   9.052   8.819
 5923SOL    HW219777   1.404   8.956   8.876
 5924SOL     OW19778   0.440   7.830   8.980
 5924SOL    HW119779   0.524   7.786   8.960
 5924SOL    HW219780   0.374   7.772   8.939
 5925SOL     OW19781   1.619   7.897   8.186
 5925SOL    HW119782   1.551   7.930   8.125
 5925SOL    HW219783   1.592   7.940   8.269
 5926SOL     OW19784   0.240   9.110   7.930
 5926SOL    HW119785   0.231   9.193   7.980
 5926SOL    HW219786   0.299   9.138   7.857
 5927SOL     OW19787   1.113   8.795   9.114
 5927SOL    HW119788   1.167   8.791   9.194
 5927SOL    HW219789   1.069   8.708   9.116
 5928SOL     OW19790   0.227   8.850   7.950
 5928SOL    HW119791   0.233   8.947   7.949
 5928SOL    HW219792   0.159   8.835   8.018
 5929SOL     OW19793   0.258   8.553   8.344
 5929SOL    HW119794   0.252   8.472   8.397
 5929SOL    HW219795   0.195   8.612   8.389
 5930SOL     OW19796   0.612   9.254   8.852
 5930SOL    HW119797   0.540   9.227   8.912
 5930SOL    HW219798   0.635   9.343   8.884
 5931SOL     OW19799   0.577   8.444   7.573
 5931SOL    HW119800   0.633   8.488   7.505
 5931SOL    HW219801   0.619   8.476   7.655
 5932SOL     OW19802   1.611   7.559   8.949
 5932SOL    HW119803   1.571   7.634   8.902
 5932SOL    HW219804   1.612   7.593   9.040
 5933SOL     OW19805   0.126   8.106   7.996
 5933SOL    HW119806   0.109   8.010   8.001
 5933SOL    HW219807   0.104   8.133   8.088
 5934SOL     OW19808   1.844   9.183   7.798
 5934SOL    HW119809   1.912   9.166   7.867
 5934SOL    HW219810   1.860   9.276   7.778
 5935SOL     OW19811   0.070   9.057   7.564
 5935SOL    HW119812   0.043   8.964   7.572
 5935SOL    HW219813   0.037   9.096   7.646
 5936SOL     OW19814   1.669   8.356   8.070
 5936SOL    HW119815   1.755   8.327   8.038
 5936SOL    HW219816   1.644   8.422   8.004
 5937SOL     OW19817   1.645   8.582   7.884
 5937SOL    HW119818   1.737   8.572   7.856
 5937SOL    HW219819   1.653   8.644   7.959
 5938SOL     OW19820   0.124   8.183   9.041
 5938SOL    HW119821   0.210   8.221   9.064
 5938SOL    HW219822   0.069   8.260   9.022
 5939SOL     OW19823   0.620   8.853   8.203
 5939SOL    HW119824   0.584   8.765   8.226
 5939SOL    HW219825   0.603   8.853   8.107
 5940SOL     OW19826   1.279   8.680   8.872
 5940SOL    HW119827   1.319   8.616   8.811
 5940SOL    HW219828   1.334   8.669   8.952
 5941SOL     OW19829   0.826   7.446   7.951
 5941SOL    HW119830   0.853   7.539   7.942
 5941SOL    HW219831   0.729   7.454   7.961
 5942SOL     OW19832   0.169   8.434   8.675
 5942SOL    HW119833   0.257   8.390   8.668
 5942SOL    HW219834   0.109   8.359   8.668
 5943SOL     OW19835   1.546   8.429   7.649
 5943SOL    HW119836   1.467   8.382   7.682
 5943SOL    HW219837   1.580   8.471   7.729
 5944SOL     OW19838   1.177   9.242   9.068
 5944SOL    HW119839   1.178   9.302   8.993
 5944SOL    HW219840   1.203   9.158   9.026
 5945SOL     OW19841   0.322   7.677   9.264
 5945SOL    HW119842   0.392   7.739   9.292
 5945SOL    HW219843   0.243   7.714   9.307
 5946SOL     OW19844   1.478   8.863   8.395
 5946SOL    HW119845   1.414   8.876   8.470
 5946SOL    HW219846   1.453   8.773   8.369
 5947SOL     OW19847   1.659   9.189   8.052
 5947SOL    HW119848   1.645   9.144   7.967
 5947SOL    HW219849   1.620   9.123   8.113
 5948SOL     OW19850   0.582   8.165   7.698
 5948SOL    HW119851   0.604   8.257   7.677
 5948SOL    HW219852   0.518   8.172   7.771
 5949SOL     OW19853   1.282   7.778   8.354
 5949SOL    HW119854   1.191   7.753   8.380
 5949SOL    HW219855   1.334   7.745   8.430
 5950SOL     OW19856   1.573   9.088   7.756
 5950SOL    HW119857   1.665   9.117   7.762
 5950SOL    HW219858   1.566   9.072   7.660
 5951SOL     OW19859   0.788   8.071   8.908
 5951SOL    HW119860   0.768   8.032   8.996
 5951SOL    HW219861   0.751   8.004   8.847
 5952SOL     OW19862   1.389   7.921   9.123
 5952SOL    HW119863   1.397   7.962   9.210
 5952SOL    HW219864   1.444   7.841   9.136
 5953SOL     OW19865   0.957   8.338   9.026
 5953SOL    HW119866   0.998   8.257   8.989
 5953SOL    HW219867   0.906   8.370   8.949
 5954SOL     OW19868   0.983   7.875   8.633
 5954SOL    HW119869   0.974   7.861   8.728
 5954SOL    HW219870   0.986   7.786   8.596
 5955SOL     OW19871   1.047   8.127   7.851
 5955SOL    HW119872   1.068   8.144   7.944
 5955SOL    HW219873   0.959   8.084   7.858
 5956SOL     OW19874   0.089   8.258   8.217
 5956SOL    HW119875   0.171   8.237   8.267
 5956SOL    HW219876   0.051   8.328   8.274
 5957SOL     OW19877   0.139   9.271   9.027
 5957SOL    HW119878   0.141   9.252   9.124
 5957SOL    HW219879   0.049   9.298   9.011
 5958SOL     OW19880   0.882   7.839   7.653
 5958SOL    HW119881   0.931   7.887   7.585
 5958SOL    HW219882   0.897   7.747   7.627
 5959SOL     OW19883   1.744   8.054   9.277
 5959SOL    HW119884   1.686   8.121   9.233
 5959SOL    HW219885   1.739   7.981   9.214
 5960SOL     OW19886   1.363   8.599   8.016
 5960SOL    HW119887   1.441   8.597   7.958
 5960SOL    HW219888   1.306   8.663   7.970
 5961SOL     OW19889   0.587   7.653   8.341
 5961SOL    HW119890   0.587   7.657   8.439
 5961SOL    HW219891   0.568   7.744   8.317
 5962SOL     OW19892   0.983   8.895   7.949
 5962SOL    HW119893   0.955   8.960   7.882
 5962SOL    HW219894   0.970   8.945   8.032
 5963SOL     OW19895   0.377   9.258   8.288
 5963SOL    HW119896   0.398   9.165   8.309
 5963SOL    HW219897   0.464   9.299   8.305
 5964SOL     OW19898   1.806   8.479   8.319
 5964SOL    HW119899   1.745   8.486   8.244
 5964SOL    HW219900   1.747   8.484   8.396
 5965SOL     OW19901   1.226   9.004   8.952
 5965SOL    HW119902   1.202   8.929   9.008
 5965SOL    HW219903   1.192   8.975   8.866
 5966SOL     OW19904   0.316   8.387   7.687
 5966SOL    HW119905   0.397   8.411   7.638
 5966SOL    HW219906   0.303   8.293   7.663
 5967SOL     OW19907   1.470   8.202   8.167
 5967SOL    HW119908   1.479   8.169   8.257
 5967SOL    HW219909   1.550   8.257   8.156
 5968SOL     OW19910   0.459   8.716   9.173
 5968SOL    HW119911   0.427   8.716   9.080
 5968SOL    HW219912   0.377   8.729   9.222
 5969SOL     OW19913   1.098   9.208   7.685
 5969SOL    HW119914   1.023   9.163   7.728
 5969SOL    HW219915   1.109   9.155   7.603
 5970SOL     OW19916   0.180   7.723   8.952
 5970SOL    HW119917   0.102   7.775   8.977
 5970SOL    HW219918   0.187   7.661   9.027
 5971SOL     OW19919   1.620   8.805   7.538
 5971SOL    HW119920   1.578   8.890   7.516
 5971SOL    HW219921   1.555   8.741   7.504
 5972SOL     OW19922   0.450   9.165   7.766
 5972SOL    HW119923   0.493   9.221   7.834
 5972SOL    HW219924   0.525   9.138   7.711
 5973SOL     OW19925   1.385   7.582   7.911
 5973SOL    HW119926   1.377   7.538   7.824
 5973SOL    HW219927   1.481   7.587   7.922
 5974SOL     OW19928   0.260   9.240   8.669
 5974SOL    HW119929   0.304   9.168   8.716
 5974SOL    HW219930   0.237   9.198   8.585
 5975SOL     OW19931   0.936   9.155   8.338
 5975SOL    HW119932   1.019   9.117   8.369
 5975SOL    HW219933   0.911   9.097   8.263
 5976SOL     OW19934   0.406   8.142   7.908
 5976SOL    HW119935   0.430   8.048   7.925
 5976SOL    HW219936   0.316   8.143   7.945
 5977SOL     OW19937   1.539   7.705   9.180
 5977SOL    HW119938   1.542   7.703   9.279
 5977SOL    HW219939   1.468   7.642   9.163
 5978SOL     OW19940   0.648   7.578   7.536
 5978SOL    HW119941   0.704   7.510   7.572
 5978SOL    HW219942   0.593   7.528   7.472
 5979SOL     OW19943   0.746   7.701   9.182
 5979SOL    HW119944   0.833   7.654   9.186
 5979SOL    HW219945   0.707   7.679   9.267
 5980SOL     OW19946   0.877   8.984   8.645
 5980SOL    HW119947   0.872   8.955   8.553
 5980SOL    HW219948   0.941   8.921   8.684
 5981SOL     OW19949   1.327   8.049   8.885
 5981SOL    HW119950   1.360   8.008   8.967
 5981SOL    HW219951   1.387   8.123   8.872
 5982SOL     OW19952   0.839   8.855   8.393
 5982SOL    HW119953   0.929   8.842   8.356
 5982SOL    HW219954   0.786   8.867   8.312
 5983SOL     OW19955   0.936   7.985   8.358
 5983SOL    HW119956   0.914   7.959   8.266
 5983SOL    HW219957   0.954   7.900   8.401
 5984SOL     OW19958   0.562   7.495   7.949
 5984SOL    HW119959   0.479   7.498   8.000
 5984SOL    HW219960   0.554   7.578   7.897
 5985SOL     OW19961   1.441   8.621   7.472
 5985SOL    HW119962   1.470   8.550   7.533
 5985SOL    HW219963   1.359   8.652   7.510
 5986SOL     OW19964   0.297   7.484   7.645
 5986SOL    HW119965   0.367   7.551   7.635
 5986SOL    HW219966   0.345   7.416   7.696
 5987SOL     OW19967   0.928   7.702   7.938
 5987SOL    HW119968   0.914   7.759   7.860
 5987SOL    HW219969   1.024   7.711   7.950
 5988SOL     OW19970   1.078   8.132   8.910
 5988SOL    HW119971   1.033   8.048   8.928
 5988SOL    HW219972   1.173   8.106   8.908
 5989SOL     OW19973   1.244   9.011   8.242
 5989SOL    HW119974   1.243   9.081   8.175
 5989SOL    HW219975   1.303   9.046   8.309
 5990SOL     OW19976   0.446   8.630   8.177
 5990SOL    HW119977   0.381   8.597   8.243
 5990SOL    HW219978   0.411   8.596   8.094
 5991SOL     OW19979   1.252   9.260   8.053
 5991SOL    HW119980   1.296   9.325   7.994
 5991SOL    HW219981   1.224   9.317   8.126
 5992SOL     OW19982   1.063   7.976   7.484
 5992SOL    HW119983   1.024   8.064   7.477
 5992SOL    HW219984   1.136   7.987   7.548
 5993SOL     OW19985   0.061   8.016   8.839
 5993SOL    HW119986   0.151   8.003   8.804
 5993SOL    HW219987   0.076   8.081   8.910
 5994SOL     OW19988   0.584   7.664   8.611
 5994SOL    HW119989   0.624   7.594   8.663
 5994SOL    HW219990   0.494   7.668   8.646
 5995SOL     OW19991   0.881   7.914   8.112
 5995SOL    HW119992   0.829   7.961   8.046
 5995SOL    HW219993   0.893   7.826   8.073
 5996SOL     OW19994   0.998   7.531   8.221
 5996SOL    HW119995   0.956   7.508   8.137
 5996SOL    HW219996   0.982   7.452   8.275
 5997SOL     OW19997   1.418   8.611   8.333
 5997SOL    HW119998   1.373   8.529   8.358
 5997SOL    HW219999   1.405   8.615   8.237
 5998SOL     OW20000   1.506   8.015   8.414
 5998SOL    HW120001   1.434   7.957   8.444
 5998SOL    HW220002   1.556   8.030   8.496
 5999SOL     OW20003   1.845   8.268   7.842
 5999SOL    HW120004   1.898   8.211   7.901
 5999SOL    HW220005   1.826   8.205   7.770
 6000SOL     OW20006   0.491   8.833   7.618
 6000SOL    HW120007   0.399   8.819   7.648
 6000SOL    HW220008   0.486   8.819   7.523
 6001SOL     OW20009   1.667   8.737   8.114
 6001SOL    HW120010   1.763   8.750   8.117
 6001SOL    HW220011   1.631   8.824   8.135
 6002SOL     OW20012   1.418   8.041   7.508
 6002SOL    HW120013   1.371   8.013   7.590
 6002SOL    HW220014   1.510   8.019   7.529
 6003SOL     OW20015   0.524   7.690   7.757
 6003SOL    HW120016   0.576   7.656   7.682
 6003SOL    HW220017   0.496   7.775   7.720
 6004SOL     OW20018   1.733   8.676   9.023
 6004SOL    HW120019   1.820   8.632   9.028
 6004SOL    HW220020   1.758   8.769   9.038
 6005SOL     OW20021   1.061   8.813   8.776
 6005SOL    HW120022   0.983   8.784   8.828
 6005SOL    HW220023   1.133   8.765   8.822
 6006SOL     OW20024   1.612   9.057   9.092
 6006SOL    HW120025   1.621   9.095   9.002
 6006SOL    HW220026   1.687   8.994   9.093
 6007SOL     OW20027   1.089   8.669   8.542
 6007SOL    HW120028   1.067   8.726   8.618
 6007SOL    HW220029   1.086   8.730   8.468
 6008SOL     OW20030   1.601   8.546   8.533
 6008SOL    HW120031   1.612   8.614   8.603
 6008SOL    HW220032   1.541   8.594   8.473
 6009SOL     OW20033   0.917   7.574   8.821
 6009SOL    HW120034   0.948   7.529   8.740
 6009SOL    HW220035   1.003   7.594   8.863
 6010SOL     OW20036   0.981   8.556   9.187
 6010SOL    HW120037   0.886   8.573   9.200
 6010SOL    HW220038   0.982   8.481   9.124
 6011SOL     OW20039   0.711   8.509   7.817
 6011SOL    HW120040   0.723   8.502   7.914
 6011SOL    HW220041   0.788   8.457   7.785
 6012SOL     OW20042   0.383   8.266   8.699
 6012SOL    HW120043   0.455   8.269   8.766
 6012SOL    HW220044   0.360   8.172   8.699
 6013SOL     OW20045   1.294   7.882   8.674
 6013SOL    HW120046   1.303   7.929   8.759
 6013SOL    HW220047   1.200   7.858   8.675
 6014SOL     OW20048   0.029   9.029   8.808
 6014SOL    HW120049   0.003   9.098   8.745
 6014SOL    HW220050   0.123   9.047   8.823
 6015SOL     OW20051   0.385   8.543   7.926
 6015SOL    HW120052   0.432   8.619   7.890
 6015SOL    HW220053   0.454   8.475   7.926
 6016SOL     OW20054   0.546   7.988   8.292
 6016SOL    HW120055   0.579   8.049   8.224
 6016SOL    HW220056   0.600   8.010   8.370
 6017SOL     OW20057   1.217   8.788   7.840
 6017SOL    HW120058   1.265   8.866   7.873
 6017SOL    HW220059   1.130   8.803   7.880
 6018SOL     OW20060   1.298   8.878   8.578
 6018SOL    HW120061   1.295   8.974   8.598
 6018SOL    HW220062   1.244   8.841   8.648
 6019SOL     OW20063   1.581   8.070   7.919
 6019SOL    HW120064   1.539   8.124   7.988
 6019SOL    HW220065   1.617   8.138   7.860
 6020SOL     OW20066   0.330   8.976   8.759
 6020SOL    HW120067   0.317   8.924   8.677
 6020SOL    HW220068   0.427   8.990   8.755
 6021SOL     OW20069   0.427   8.182   9.053
 6021SOL    HW120070   0.489   8.224   8.991
 6021SOL    HW220071   0.465   8.092   9.055
 6022SOL     OW20072   1.610   8.227   9.130
 6022SOL    HW120073   1.518   8.257   9.145
 6022SOL    HW220074   1.633   8.275   9.049
 6023SOL     OW20075   0.979   7.556   9.192
 6023SOL    HW120076   1.037   7.633   9.180
 6023SOL    HW220077   1.038   7.485   9.163
 6024SOL     OW20078   0.493   7.471   9.199
 6024SOL    HW120079   0.453   7.411   9.134
 6024SOL    HW220080   0.428   7.544   9.203
 6025SOL     OW20081   0.592   8.344   8.485
 6025SOL    HW120082   0.623   8.435   8.491
 6025SOL    HW220083   0.536   8.333   8.563
 6026SOL     OW20084   1.351   8.319   8.461
 6026SOL    HW120085   1.268   8.277   8.433
 6026SOL    HW220086   1.399   8.245   8.500
 6027SOL     OW20087   1.230   7.966   7.705
 6027SOL    HW120088   1.240   7.892   7.769
 6027SOL    HW220089   1.169   8.024   7.754
 6028SOL     OW20090   0.317   7.649   8.702
 6028SOL    HW120091   0.255   7.667   8.774
 6028SOL    HW220092   0.307   7.552   8.693
 6029SOL     OW20093   0.064   8.768   8.713
 6029SOL    HW120094   0.115   8.714   8.774
 6029SOL    HW220095   0.052   8.852   8.761
 6030SOL     OW20096   0.719   8.085   8.499
 6030SOL    HW120097   0.803   8.060   8.456
 6030SOL    HW220098   0.706   8.178   8.477
 6031SOL     OW20099   1.758   8.392   9.292
 6031SOL    HW120100   1.714   8.330   9.232
 6031SOL    HW220101   1.690   8.397   9.362
 6032SOL     OW20102   0.290   7.501   8.046
 6032SOL    HW120103   0.272   7.593   8.070
 6032SOL    HW220104   0.309   7.463   8.134
 6033SOL     OW20105   1.587   7.826   7.800
 6033SOL    HW120106   1.626   7.758   7.857
 6033SOL    HW220107   1.581   7.904   7.860
 6034SOL     OW20108   1.071   8.209   8.416
 6034SOL    HW120109   1.040   8.233   8.505
 6034SOL    HW220110   1.035   8.118   8.408
 6035SOL     OW20111   0.969   9.017   9.149
 6035SOL    HW120112   0.961   9.070   9.067
 6035SOL    HW220113   1.007   8.933   9.116
 6036SOL     OW20114   1.848   8.927   9.059
 6036SOL    HW120115   1.861   8.957   8.968
 6036SOL    HW220116   1.929   8.961   9.102
 6037SOL     OW20117   0.361   8.344   9.250
 6037SOL    HW120118   0.444   8.365   9.296
 6037SOL    HW220119   0.389   8.273   9.189
 6038SOL     OW20120   1.508   7.704   7.577
 6038SOL    HW120121   1.430   7.659   7.613
 6038SOL    HW220122   1.545   7.748   7.657
 6039SOL     OW20123   1.289   8.281   7.468
 6039SOL    HW120124   1.346   8.205   7.489
 6039SOL    HW220125   1.324   8.306   7.380
 6040SOL     OW20126   1.071   8.810   8.289
 6040SOL    HW120127   1.092   8.732   8.234
 6040SOL    HW220128   1.145   8.872   8.272
 6041SOL     OW20129   0.286   8.272   8.420
 6041SOL    HW120130   0.380   8.287   8.403
 6041SOL    HW220131   0.286   8.181   8.453
 6042SOL     OW20132   0.325   8.001   8.440
 6042SOL    HW120133   0.282   7.914   8.430
 6042SOL    HW220134   0.399   7.995   8.377
 6043SOL     OW20135   1.114   7.816   9.172
 6043SOL    HW120136   1.098   7.887   9.237
 6043SOL    HW220137   1.198   7.842   9.132
 6044SOL     OW20138  11.076   8.785   7.631
 6044SOL    HW120139  10.996   8.838   7.621
 6044SOL    HW220140  11.040   8.695   7.625
 6045SOL     OW20141   0.137   9.246   8.401
 6045SOL    HW120142   0.099   9.187   8.333
 6045SOL    HW220143   0.225   9.263   8.363
 6046SOL     OW20144   0.491   9.028   8.366
 6046SOL    HW120145   0.564   9.091   8.377
 6046SOL    HW220146   0.533   8.959   8.311
 6047SOL     OW20147   0.964   8.240   8.680
 6047SOL    HW120148   1.023   8.206   8.750
 6047SOL    HW220149   0.884   8.190   8.701
 6048SOL     OW20150  11.091   8.061   8.542
 6048SOL    HW120151   0.049   8.015   8.480
 6048SOL    HW220152   0.015   8.021   8.627
 6049SOL     OW20153   0.205   7.977   9.198
 6049SOL    HW120154   0.268   7.928   9.143
 6049SOL    HW220155   0.173   8.045   9.136
 6050SOL     OW20156   1.404   8.405   9.065
 6050SOL    HW120157   1.424   8.500   9.059
 6050SOL    HW220158   1.408   8.374   8.973
 6051SOL     OW20159   0.793   8.029   7.822
 6051SOL    HW120160   0.815   7.959   7.757
 6051SOL    HW220161   0.712   8.067   7.784
 6052SOL     OW20162   1.640   8.066   8.647
 6052SOL    HW120163   1.614   8.002   8.715
 6052SOL    HW220164   1.723   8.027   8.614
 6053SOL     OW20165   0.257   8.987   9.172
 6053SOL    HW120166   0.229   9.061   9.229
 6053SOL    HW220167   0.243   8.910   9.230
 6054SOL     OW20168   0.671   7.925   8.714
 6054SOL    HW120169   0.645   7.840   8.675
 6054SOL    HW220170   0.686   7.980   8.635
 6055SOL     OW20171   0.908   9.145   8.921
 6055SOL    HW120172   0.915   9.109   8.832
 6055SOL    HW220173   0.913   9.241   8.905
 6056SOL     OW20174   0.451   7.929   7.630
 6056SOL    HW120175   0.514   8.003   7.635
 6056SOL    HW220176   0.367   7.978   7.636
 6057SOL     OW20177   0.158   8.575   8.913
 6057SOL    HW120178   0.171   8.518   8.991
 6057SOL    HW220179   0.171   8.514   8.838
 6058SOL     OW20180   1.318   8.495   8.674
 6058SOL    HW120181   1.335   8.437   8.598
 6058SOL    HW220182   1.244   8.548   8.642
 6059SOL     OW20183   1.318   8.301   7.747
 6059SOL    HW120184   1.241   8.271   7.798
 6059SOL    HW220185   1.287   8.298   7.654
 6060SOL     OW20186   1.768   9.195   8.588
 6060SOL    HW120187   1.829   9.221   8.516
 6060SOL    HW220188   1.736   9.109   8.555
 6061SOL     OW20189   0.093   8.743   8.448
 6061SOL    HW120190   0.095   8.759   8.544
 6061SOL    HW220191   0.019   8.681   8.441
 6062SOL     OW20192   0.678   9.088   9.192
 6062SOL    HW120193   0.640   9.175   9.173
 6062SOL    HW220194   0.764   9.093   9.147
 6063SOL     OW20195   1.673   7.585   7.943
 6063SOL    HW120196   1.751   7.573   7.887
 6063SOL    HW220197   1.672   7.502   7.995
 6064SOL     OW20198   1.354   9.021   7.924
 6064SOL    HW120199   1.425   9.037   7.858
 6064SOL    HW220200   1.322   9.111   7.943
 6065SOL     OW20201   0.165   9.226   9.291
 6065SOL    HW120202   0.114   9.161   9.345
 6065SOL    HW220203   0.208   9.278   9.362
 6066SOL     OW20204   1.254   8.365   8.109
 6066SOL    HW120205   1.334   8.314   8.127
 6066SOL    HW220206   1.291   8.447   8.069
 6067SOL     OW20207   0.811   8.710   8.890
 6067SOL    HW120208   0.781   8.755   8.971
 6067SOL    HW220209   0.733   8.722   8.833
 6068SOL     OW20210   0.666   9.060   7.607
 6068SOL    HW120211   0.674   9.069   7.510
 6068SOL    HW220212   0.624   8.973   7.616
 6069SOL     OW20213   1.660   9.183   8.859
 6069SOL    HW120214   1.683   9.191   8.765
 6069SOL    HW220215   1.628   9.272   8.882
 6070SOL     OW20216   1.835   7.612   8.421
 6070SOL    HW120217   1.859   7.524   8.386
 6070SOL    HW220218   1.747   7.629   8.381
 6071SOL     OW20219   0.274   7.746   8.151
 6071SOL    HW120220   0.180   7.765   8.130
 6071SOL    HW220221   0.274   7.754   8.247
 6072SOL     OW20222   1.167   9.068   7.469
 6072SOL    HW120223   1.186   8.974   7.481
 6072SOL    HW220224   1.110   9.071   7.389
 6073SOL     OW20225   0.797   8.447   8.828
 6073SOL    HW120226   0.847   8.441   8.745
 6073SOL    HW220227   0.812   8.540   8.856
 6074SOL     OW20228   0.919   8.369   7.725
 6074SOL    HW120229   0.993   8.402   7.670
 6074SOL    HW220230   0.953   8.285   7.760
 6075SOL     OW20231   1.515   9.045   7.483
 6075SOL    HW120232   1.423   9.072   7.476
 6075SOL    HW220233   1.549   9.062   7.392
 6076SOL     OW20234   0.377   8.723   8.921
 6076SOL    HW120235   0.358   8.809   8.880
 6076SOL    HW220236   0.294   8.673   8.908
 6077SOL     OW20237   1.605   8.752   8.705
 6077SOL    HW120238   1.650   8.737   8.789
 6077SOL    HW220239   1.540   8.820   8.729
 6078SOL     OW20240   1.038   8.552   8.154
 6078SOL    HW120241   0.971   8.505   8.205
 6078SOL    HW220242   1.107   8.484   8.143
 6079SOL     OW20243   1.037   7.675   8.440
 6079SOL    HW120244   1.017   7.637   8.352
 6079SOL    HW220245   1.033   7.596   8.497
 6080SOL     OW20246   0.592   8.887   7.930
 6080SOL    HW120247   0.663   8.872   7.865
 6080SOL    HW220248   0.530   8.941   7.881
 6081SOL     OW20249   1.703   7.822   8.828
 6081SOL    HW120250   1.770   7.893   8.827
 6081SOL    HW220251   1.747   7.752   8.776
 6082SOL     OW20252   0.232   8.785   7.703
 6082SOL    HW120253   0.138   8.808   7.694
 6082SOL    HW220254   0.246   8.809   7.798
 6083SOL     OW20255   0.135   8.460   9.182
 6083SOL    HW120256   0.070   8.421   9.240
 6083SOL    HW220257   0.219   8.419   9.214
 6084SOL     OW20258   0.677   7.640   8.926
 6084SOL    HW120259   0.767   7.623   8.891
 6084SOL    HW220260   0.696   7.670   9.017
 6085SOL     OW20261   0.093   7.787   7.495
 6085SOL    HW120262  11.098   7.784   7.486
 6085SOL    HW220263   0.115   7.868   7.446
 6086SOL     OW20264   1.459   8.301   8.819
 6086SOL    HW120265   1.411   8.370   8.769
 6086SOL    HW220266   1.551   8.324   8.801
 6087SOL     OW20267   0.074   7.609   7.752
 6087SOL    HW120268   0.075   7.690   7.700
 6087SOL    HW220269   0.155   7.564   7.724
 6088SOL     OW20270   1.205   8.787   7.558
 6088SOL    HW120271   1.119   8.745   7.572
 6088SOL    HW220272   1.234   8.802   7.650
 6089SOL     OW20273   0.603   8.262   8.861
 6089SOL    HW120274   0.663   8.339   8.860
 6089SOL    HW220275   0.670   8.192   8.873
 6090SOL     OW20276   1.532   9.187   8.386
 6090SOL    HW120277   1.547   9.273   8.347
 6090SOL    HW220278   1.470   9.204   8.459
 6091SOL     OW20279   0.709   7.982   9.148
 6091SOL    HW120280   0.758   8.046   9.203
 6091SOL    HW220281   0.733   7.896   9.185
 6092SOL     OW20282   1.464   8.657   9.075
 6092SOL    HW120283   1.456   8.647   9.172
 6092SOL    HW220284   1.561   8.667   9.064
 6093SOL     OW20285   0.390   9.181   9.009
 6093SOL    HW120286   0.304   9.227   8.999
 6093SOL    HW220287   0.359   9.095   9.044
 6094SOL     OW20288   1.707   8.334   8.683
 6094SOL    HW120289   1.682   8.245   8.651
 6094SOL    HW220290   1.662   8.394   8.621
 6095SOL     OW20291   1.208   7.788   7.914
 6095SOL    HW120292   1.272   7.714   7.916
 6095SOL    HW220293   1.240   7.841   7.990
 6096SOL     OW20294   0.606   8.191   8.101
 6096SOL    HW120295   0.631   8.285   8.101
 6096SOL    HW220296   0.535   8.187   8.035
 6097SOL     OW20297   1.767   7.812   9.087
 6097SOL    HW120298   1.733   7.825   8.996
 6097SOL    HW220299   1.689   7.773   9.129
 6098SOL     OW20300   1.736   8.388   8.944
 6098SOL    HW120301   1.726   8.484   8.946
 6098SOL    HW220302   1.749   8.369   8.849
 6099SOL     OW20303   0.849   8.818   7.482
 6099SOL    HW120304   0.845   8.823   7.579
 6099SOL    HW220305   0.889   8.902   7.455
 6100SOL     OW20306   0.656   9.251   8.351
 6100SOL    HW120307   0.657   9.349   8.346
 6100SOL    HW220308   0.749   9.228   8.365
 6101SOL     OW20309   0.871   8.388   8.292
 6101SOL    HW120310   0.924   8.323   8.339
 6101SOL    HW220311   0.842   8.447   8.363
 6102SOL     OW20312   1.089   8.441   7.534
 6102SOL    HW120313   1.070   8.499   7.459
 6102SOL    HW220314   1.162   8.385   7.500
 6103SOL     OW20315   1.865   9.000   8.274
 6103SOL    HW120316   1.773   9.023   8.261
 6103SOL    HW220317   1.861   8.944   8.352
 6104SOL     OW20318   0.216   8.750   9.301
 6104SOL    HW120319   0.175   8.666   9.274
 6104SOL    HW220320   0.214   8.745   9.398
 6105SOL     OW20321   0.084   8.664   8.092
 6105SOL    HW120322   0.049   8.595   8.150
 6105SOL    HW220323   0.173   8.676   8.129
 6106SOL     OW20324   0.662   8.850   9.065
 6106SOL    HW120325   0.588   8.796   9.100
 6106SOL    HW220326   0.657   8.931   9.120
 6107SOL     OW20327   1.824   7.618   8.681
 6107SOL    HW120328   1.818   7.522   8.687
 6107SOL    HW220329   1.827   7.630   8.584
 6108SOL     OW20330   0.433   7.881   7.973
 6108SOL    HW120331   0.450   7.810   7.910
 6108SOL    HW220332   0.385   7.835   8.045
 6109SOL     OW20333   1.724   8.926   8.523
 6109SOL    HW120334   1.639   8.917   8.477
 6109SOL    HW220335   1.706   8.875   8.604
 6110SOL     OW20336   0.318   7.988   8.719
 6110SOL    HW120337   0.383   7.933   8.764
 6110SOL    HW220338   0.324   7.959   8.626
 6111SOL     OW20339   0.818   9.047   8.115
 6111SOL    HW120340   0.789   9.114   8.051
 6111SOL    HW220341   0.739   8.992   8.130
 6112SOL     OW20342   1.429   7.691   8.553
 6112SOL    HW120343   1.460   7.630   8.621
 6112SOL    HW220344   1.379   7.756   8.608
 6113SOL     OW20345   1.008   7.441   8.595
 6113SOL    HW120346   0.961   7.361   8.569
 6113SOL    HW220347   1.101   7.409   8.598
 6114SOL     OW20348   0.806   8.785   7.759
 6114SOL    HW120349   0.772   8.695   7.774
 6114SOL    HW220350   0.870   8.793   7.832
 6115SOL     OW20351   0.598   9.006   8.719
 6115SOL    HW120352   0.598   9.093   8.763
 6115SOL    HW220353   0.693   8.999   8.699
 6116SOL     OW20354   1.313   7.484   7.640
 6116SOL    HW120355   1.334   7.427   7.565
 6116SOL    HW220356   1.225   7.448   7.668
 6117SOL     OW20357   1.298   7.921   8.126
 6117SOL    HW120358   1.239   7.998   8.132
 6117SOL    HW220359   1.284   7.877   8.212
 6118SOL     OW20360   1.596   7.649   8.313
 6118SOL    HW120361   1.519   7.663   8.371
 6118SOL    HW220362   1.596   7.729   8.258
 6119SOL     OW20363   0.884   9.093   7.778
 6119SOL    HW120364   0.811   9.075   7.716
 6119SOL    HW220365   0.855   9.174   7.825
 6120SOL     OW20366   0.244   8.107   9.442
 6120SOL    HW120367   0.161   8.083   9.484
 6120SOL    HW220368   0.239   8.064   9.355
 6121SOL     OW20369   0.212   7.726  10.290
 6121SOL    HW120370   0.253   7.703  10.375
 6121SOL    HW220371   0.147   7.655  10.279
 6122SOL     OW20372   0.003   7.827   9.944
 6122SOL    HW120373  11.029   7.853   9.997
 6122SOL    HW220374  11.078   7.737   9.913
 6123SOL     OW20375   0.578   8.747  10.460
 6123SOL    HW120376   0.485   8.736  10.437
 6123SOL    HW220377   0.577   8.832  10.507
 6124SOL     OW20378   1.554   8.975  10.025
 6124SOL    HW120379   1.518   8.944  10.111
 6124SOL    HW220380   1.478   8.965   9.964
 6125SOL     OW20381   1.116   8.137   9.988
 6125SOL    HW120382   1.159   8.224   9.981
 6125SOL    HW220383   1.074   8.142  10.075
 6126SOL     OW20384   1.761   8.049   9.542
 6126SOL    HW120385   1.751   8.053   9.445
 6126SOL    HW220386   1.696   7.980   9.564
 6127SOL     OW20387   0.773   8.607  10.342
 6127SOL    HW120388   0.700   8.651  10.390
 6127SOL    HW220389   0.803   8.681  10.288
 6128SOL     OW20390   0.841   8.206   0.016
 6128SOL    HW120391   0.837   8.280   0.077
 6128SOL    HW220392   0.882   8.249  11.039
 6129SOL     OW20393   0.690   8.461   9.970
 6129SOL    HW120394   0.750   8.444  10.045
 6129SOL    HW220395   0.616   8.507  10.013
 6130SOL     OW20396   0.315   8.889  10.386
 6130SOL    HW120397   0.244   8.850  10.333
 6130SOL    HW220398   0.369   8.935  10.319
 6131SOL     OW20399   1.468   8.956  10.664
 6131SOL    HW120400   1.528   9.034  10.674
 6131SOL    HW220401   1.401   8.975  10.731
 6132SOL     OW20402   0.469   7.837  10.832
 6132SOL    HW120403   0.541   7.776  10.813
 6132SOL    HW220404   0.388   7.784  10.819
 6133SOL     OW20405   1.609   7.890  10.049
 6133SOL    HW120406   1.550   7.932   9.985
 6133SOL    HW220407   1.622   7.960  10.114
 6134SOL     OW20408   0.215   9.122   9.778
 6134SOL    HW120409   0.215   9.198   9.837
 6134SOL    HW220410   0.272   9.152   9.706
 6135SOL     OW20411   0.226   8.855   9.828
 6135SOL    HW120412   0.222   8.952   9.813
 6135SOL    HW220413   0.158   8.843   9.895
 6136SOL     OW20414   0.262   8.567  10.220
 6136SOL    HW120415   0.241   8.480  10.257
 6136SOL    HW220416   0.191   8.622  10.257
 6137SOL     OW20417   0.609   9.252  10.725
 6137SOL    HW120418   0.535   9.229  10.784
 6137SOL    HW220419   0.627   9.344  10.749
 6138SOL     OW20420   0.577   8.438   9.427
 6138SOL    HW120421   0.622   8.495   9.362
 6138SOL    HW220422   0.619   8.468   9.510
 6139SOL     OW20423   1.583   7.563  10.784
 6139SOL    HW120424   1.595   7.652  10.748
 6139SOL    HW220425   1.592   7.575  10.879
 6140SOL     OW20426   0.123   8.084   9.865
 6140SOL    HW120427   0.101   7.990   9.876
 6140SOL    HW220428   0.109   8.122   9.954
 6141SOL     OW20429   1.851   9.189   9.650
 6141SOL    HW120430   1.918   9.176   9.719
 6141SOL    HW220431   1.863   9.284   9.630
 6142SOL     OW20432   0.056   9.035   9.442
 6142SOL    HW120433   0.033   8.942   9.455
 6142SOL    HW220434   0.011   9.079   9.515
 6143SOL     OW20435   1.682   8.362   9.915
 6143SOL    HW120436   1.744   8.317   9.855
 6143SOL    HW220437   1.641   8.426   9.855
 6144SOL     OW20438   1.629   8.578   9.759
 6144SOL    HW120439   1.719   8.571   9.727
 6144SOL    HW220440   1.639   8.640   9.834
 6145SOL     OW20441   0.134   8.168  10.909
 6145SOL    HW120442   0.226   8.195  10.923
 6145SOL    HW220443   0.085   8.251  10.904
 6146SOL     OW20444   0.609   8.844  10.069
 6146SOL    HW120445   0.566   8.758  10.084
 6146SOL    HW220446   0.597   8.851   9.973
 6147SOL     OW20447   1.291   8.691  10.735
 6147SOL    HW120448   1.316   8.624  10.669
 6147SOL    HW220449   1.347   8.669  10.810
 6148SOL     OW20450   0.835   7.452   9.770
 6148SOL    HW120451   0.857   7.544   9.791
 6148SOL    HW220452   0.752   7.439   9.820
 6149SOL     OW20453   0.174   8.430  10.570
 6149SOL    HW120454   0.259   8.384  10.555
 6149SOL    HW220455   0.110   8.360  10.550
 6150SOL     OW20456   1.557   8.400   9.478
 6150SOL    HW120457   1.482   8.349   9.442
 6150SOL    HW220458   1.536   8.405   9.572
 6151SOL     OW20459   1.238   9.265  10.902
 6151SOL    HW120460   1.209   9.330  10.838
 6151SOL    HW220461   1.230   9.181  10.852
 6152SOL     OW20462   0.319   7.691   0.029
 6152SOL    HW120463   0.381   7.765   0.025
 6152SOL    HW220464   0.237   7.732   0.061
 6153SOL     OW20465   1.475   8.858  10.263
 6153SOL    HW120466   1.412   8.880  10.334
 6153SOL    HW220467   1.447   8.769  10.236
 6154SOL     OW20468   1.664   9.183   9.898
 6154SOL    HW120469   1.640   9.141   9.815
 6154SOL    HW220470   1.634   9.115   9.962
 6155SOL     OW20471   0.589   8.169   9.583
 6155SOL    HW120472   0.600   8.256   9.543
 6155SOL    HW220473   0.516   8.184   9.647
 6156SOL     OW20474   1.283   7.813  10.252
 6156SOL    HW120475   1.194   7.772  10.256
 6156SOL    HW220476   1.334   7.755  10.312
 6157SOL     OW20477   1.570   9.096   9.621
 6157SOL    HW120478   1.663   9.123   9.618
 6157SOL    HW220479   1.551   9.090   9.526
 6158SOL     OW20480   0.809   8.077  10.770
 6158SOL    HW120481   0.780   8.045  10.858
 6158SOL    HW220482   0.771   8.009  10.711
 6159SOL     OW20483   0.960   8.321  10.890
 6159SOL    HW120484   1.007   8.251  10.840
 6159SOL    HW220485   0.904   8.361  10.822
 6160SOL     OW20486   0.982   7.840  10.554
 6160SOL    HW120487   0.892   7.856  10.585
 6160SOL    HW220488   0.968   7.790  10.472
 6161SOL     OW20489   1.026   8.137   9.719
 6161SOL    HW120490   1.053   8.143   9.813
 6161SOL    HW220491   0.947   8.080   9.725
 6162SOL     OW20492   0.098   8.250  10.075
 6162SOL    HW120493   0.177   8.240  10.131
 6162SOL    HW220494   0.059   8.331  10.112
 6163SOL     OW20495   0.130   9.276  10.892
 6163SOL    HW120496   0.120   9.243  10.983
 6163SOL    HW220497   0.047   9.251  10.850
 6164SOL     OW20498   0.889   7.861   9.504
 6164SOL    HW120499   0.943   7.915   9.442
 6164SOL    HW220500   0.906   7.772   9.472
 6165SOL     OW20501   1.362   8.607   9.887
 6165SOL    HW120502   1.429   8.587   9.820
 6165SOL    HW220503   1.303   8.664   9.835
 6166SOL     OW20504   0.586   7.653  10.197
 6166SOL    HW120505   0.585   7.662  10.294
 6166SOL    HW220506   0.570   7.744  10.168
 6167SOL     OW20507   0.991   8.888   9.799
 6167SOL    HW120508   0.954   8.950   9.734
 6167SOL    HW220509   0.975   8.934   9.883
 6168SOL     OW20510   0.383   9.254  10.152
 6168SOL    HW120511   0.396   9.159  10.169
 6168SOL    HW220512   0.467   9.289  10.183
 6169SOL     OW20513   1.817   8.505  10.165
 6169SOL    HW120514   1.760   8.475  10.092
 6169SOL    HW220515   1.756   8.500  10.241
 6170SOL     OW20516   1.229   9.017  10.793
 6170SOL    HW120517   1.213   8.952  10.863
 6170SOL    HW220518   1.167   8.984  10.726
 6171SOL     OW20519   0.325   8.391   9.561
 6171SOL    HW120520   0.402   8.404   9.504
 6171SOL    HW220521   0.296   8.302   9.538
 6172SOL     OW20522   1.475   8.212  10.040
 6172SOL    HW120523   1.486   8.180  10.130
 6172SOL    HW220524   1.560   8.255  10.021
 6173SOL     OW20525   0.469   8.706  11.051
 6173SOL    HW120526   0.439   8.722  10.958
 6173SOL    HW220527   0.408   8.639  11.082
 6174SOL     OW20528   1.097   9.224   9.558
 6174SOL    HW120529   1.031   9.168   9.602
 6174SOL    HW220530   1.110   9.178   9.473
 6175SOL     OW20531   0.218   7.741  10.789
 6175SOL    HW120532   0.145   7.804  10.796
 6175SOL    HW220533   0.191   7.673  10.853
 6176SOL     OW20534   1.631   8.818   9.406
 6176SOL    HW120535   1.586   8.900   9.380
 6176SOL    HW220536   1.567   8.749   9.377
 6177SOL     OW20537   0.446   9.194   9.635
 6177SOL    HW120538   0.499   9.238   9.705
 6177SOL    HW220539   0.514   9.156   9.577
 6178SOL     OW20540   1.373   7.572   9.754
 6178SOL    HW120541   1.360   7.528   9.668
 6178SOL    HW220542   1.465   7.598   9.748
 6179SOL     OW20543   0.238   9.237  10.538
 6179SOL    HW120544   0.301   9.177  10.580
 6179SOL    HW220545   0.225   9.198  10.450
 6180SOL     OW20546   0.939   9.165  10.182
 6180SOL    HW120547   1.013   9.118  10.220
 6180SOL    HW220548   0.911   9.104  10.111
 6181SOL     OW20549   0.407   8.145   9.781
 6181SOL    HW120550   0.424   8.049   9.791
 6181SOL    HW220551   0.316   8.149   9.815
 6182SOL     OW20552   0.615   7.576   9.403
 6182SOL    HW120553   0.688   7.518   9.431
 6182SOL    HW220554   0.575   7.524   9.330
 6183SOL     OW20555   0.773   7.703  11.028
 6183SOL    HW120556   0.844   7.670  11.084
 6183SOL    HW220557   0.701   7.717  11.091
 6184SOL     OW20558   0.888   8.990  10.505
 6184SOL    HW120559   0.878   8.944  10.420
 6184SOL    HW220560   0.945   8.930  10.556
 6185SOL     OW20561   1.340   8.038  10.735
 6185SOL    HW120562   1.386   8.005  10.813
 6185SOL    HW220563   1.384   8.124  10.720
 6186SOL     OW20564   0.826   8.856  10.264
 6186SOL    HW120565   0.911   8.846  10.215
 6186SOL    HW220566   0.760   8.858  10.193
 6187SOL     OW20567   0.955   7.981  10.216
 6187SOL    HW120568   0.918   7.967  10.125
 6187SOL    HW220569   0.972   7.889  10.242
 6188SOL     OW20570   0.558   7.500   9.807
 6188SOL    HW120571   0.478   7.502   9.861
 6188SOL    HW220572   0.549   7.581   9.753
 6189SOL     OW20573   1.451   8.625   9.338
 6189SOL    HW120574   1.479   8.538   9.372
 6189SOL    HW220575   1.359   8.629   9.366
 6190SOL     OW20576   0.287   7.477   9.508
 6190SOL    HW120577   0.343   7.546   9.468
 6190SOL    HW220578   0.354   7.421   9.553
 6191SOL     OW20579   0.932   7.708   9.811
 6191SOL    HW120580   0.912   7.746   9.725
 6191SOL    HW220581   1.030   7.716   9.814
 6192SOL     OW20582   1.097   8.134  10.751
 6192SOL    HW120583   1.040   8.056  10.761
 6192SOL    HW220584   1.187   8.097  10.752
 6193SOL     OW20585   1.230   9.022  10.103
 6193SOL    HW120586   1.235   9.084  10.028
 6193SOL    HW220587   1.303   9.052  10.159
 6194SOL     OW20588   0.457   8.614  10.038
 6194SOL    HW120589   0.383   8.594  10.099
 6194SOL    HW220590   0.420   8.587   9.951
 6195SOL     OW20591   1.243   9.261   9.918
 6195SOL    HW120592   1.291   9.331   9.870
 6195SOL    HW220593   1.197   9.309   9.988
 6196SOL     OW20594   1.057   8.009   9.351
 6196SOL    HW120595   1.011   8.086   9.314
 6196SOL    HW220596   1.141   8.045   9.384
 6197SOL     OW20597   0.080   8.031  10.685
 6197SOL    HW120598   0.174   8.019  10.662
 6197SOL    HW220599   0.087   8.086  10.765
 6198SOL     OW20600   0.580   7.663  10.474
 6198SOL    HW120601   0.612   7.580  10.511
 6198SOL    HW220602   0.487   7.664  10.505
 6199SOL     OW20603   0.872   7.912   9.979
 6199SOL    HW120604   0.824   7.959   9.908
 6199SOL    HW220605   0.894   7.828   9.933
 6200SOL     OW20606   1.028   7.508  10.077
 6200SOL    HW120607   0.968   7.495  10.003
 6200SOL    HW220608   1.000   7.438  10.138
 6201SOL     OW20609   1.419   8.610  10.187
 6201SOL    HW120610   1.350   8.544  10.203
 6201SOL    HW220611   1.416   8.617  10.090
 6202SOL     OW20612   1.465   8.041  10.295
 6202SOL    HW120613   1.420   7.955  10.294
 6202SOL    HW220614   1.534   8.032  10.363
 6203SOL     OW20615   1.828   8.266   9.710
 6203SOL    HW120616   1.884   8.207   9.766
 6203SOL    HW220617   1.804   8.205   9.638
 6204SOL     OW20618   0.494   8.840   9.471
 6204SOL    HW120619   0.412   8.821   9.520
 6204SOL    HW220620   0.467   8.826   9.380
 6205SOL     OW20621   1.693   8.750   9.962
 6205SOL    HW120622   1.788   8.765   9.975
 6205SOL    HW220623   1.651   8.833   9.989
 6206SOL     OW20624   1.455   7.978   9.412
 6206SOL    HW120625   1.380   7.975   9.474
 6206SOL    HW220626   1.451   8.071   9.385
 6207SOL     OW20627   0.520   7.696   9.624
 6207SOL    HW120628   0.559   7.653   9.546
 6207SOL    HW220629   0.499   7.784   9.587
 6208SOL     OW20630   1.752   8.674  10.869
 6208SOL    HW120631   1.846   8.659  10.887
 6208SOL    HW220632   1.743   8.767  10.898
 6209SOL     OW20633   1.039   8.835  10.691
 6209SOL    HW120634   0.961   8.783  10.718
 6209SOL    HW220635   1.111   8.768  10.697
 6210SOL     OW20636   1.112   8.685  10.417
 6210SOL    HW120637   1.022   8.663  10.442
 6210SOL    HW220638   1.100   8.734  10.334
 6211SOL     OW20639   1.631   8.550  10.383
 6211SOL    HW120640   1.638   8.614  10.456
 6211SOL    HW220641   1.554   8.585  10.337
 6212SOL     OW20642   0.917   7.559  10.692
 6212SOL    HW120643   0.945   7.526  10.604
 6212SOL    HW220644   1.001   7.594  10.728
 6213SOL     OW20645   0.716   8.505   9.662
 6213SOL    HW120646   0.711   8.482   9.756
 6213SOL    HW220647   0.792   8.451   9.632
 6214SOL     OW20648   0.395   8.269  10.579
 6214SOL    HW120649   0.469   8.268  10.643
 6214SOL    HW220650   0.369   8.175  10.580
 6215SOL     OW20651   1.265   7.815  10.586
 6215SOL    HW120652   1.287   7.899  10.631
 6215SOL    HW220653   1.179   7.836  10.545
 6216SOL     OW20654   0.046   9.034  10.691
 6216SOL    HW120655   0.018   9.096  10.623
 6216SOL    HW220656   0.143   9.033  10.682
 6217SOL     OW20657   0.357   8.553   9.796
 6217SOL    HW120658   0.385   8.617   9.730
 6217SOL    HW220659   0.340   8.474   9.742
 6218SOL     OW20660   0.542   7.995  10.160
 6218SOL    HW120661   0.572   8.049  10.085
 6218SOL    HW220662   0.609   8.014  10.227
 6219SOL     OW20663   1.226   8.792   9.708
 6219SOL    HW120664   1.273   8.868   9.744
 6219SOL    HW220665   1.135   8.808   9.739
 6220SOL     OW20666   1.294   8.908  10.466
 6220SOL    HW120667   1.352   8.912  10.545
 6220SOL    HW220668   1.235   8.833  10.485
 6221SOL     OW20669   1.591   8.066   9.793
 6221SOL    HW120670   1.532   8.126   9.841
 6221SOL    HW220671   1.607   8.114   9.711
 6222SOL     OW20672   0.332   8.946  10.636
 6222SOL    HW120673   0.319   8.914  10.544
 6222SOL    HW220674   0.426   8.970  10.635
 6223SOL     OW20675   0.416   8.172  10.918
 6223SOL    HW120676   0.484   8.211  10.860
 6223SOL    HW220677   0.437   8.078  10.910
 6224SOL     OW20678   1.621   8.214  11.001
 6224SOL    HW120679   1.538   8.250  10.970
 6224SOL    HW220680   1.685   8.268  10.952
 6225SOL     OW20681   0.574   8.343  10.340
 6225SOL    HW120682   0.617   8.429  10.332
 6225SOL    HW220683   0.539   8.343  10.431
 6226SOL     OW20684   1.328   8.283  10.364
 6226SOL    HW120685   1.257   8.269  10.300
 6226SOL    HW220686   1.381   8.203  10.351
 6227SOL     OW20687   1.227   7.961   9.583
 6227SOL    HW120688   1.226   7.889   9.650
 6227SOL    HW220689   1.161   8.022   9.618
 6228SOL     OW20690   0.310   7.647  10.532
 6228SOL    HW120691   0.262   7.683  10.609
 6228SOL    HW220692   0.289   7.552  10.538
 6229SOL     OW20693   0.066   8.763  10.608
 6229SOL    HW120694   0.116   8.711  10.674
 6229SOL    HW220695   0.066   8.852  10.646
 6230SOL     OW20696   0.730   8.090  10.348
 6230SOL    HW120697   0.810   8.078  10.296
 6230SOL    HW220698   0.698   8.179  10.324
 6231SOL     OW20699   0.285   7.485   9.923
 6231SOL    HW120700   0.271   7.579   9.945
 6231SOL    HW220701   0.324   7.451  10.006
 6232SOL     OW20702   1.587   7.819   9.676
 6232SOL    HW120703   1.630   7.753   9.733
 6232SOL    HW220704   1.588   7.900   9.730
 6233SOL     OW20705   1.057   8.220  10.267
 6233SOL    HW120706   1.035   8.238  10.360
 6233SOL    HW220707   1.029   8.126  10.258
 6234SOL     OW20708   0.992   8.992  10.965
 6234SOL    HW120709   0.971   9.057  10.895
 6234SOL    HW220710   0.962   8.910  10.924
 6235SOL     OW20711   1.851   8.939  10.895
 6235SOL    HW120712   1.866   8.970  10.805
 6235SOL    HW220713   1.931   8.968  10.940
 6236SOL     OW20714   0.376   8.366  11.088
 6236SOL    HW120715   0.463   8.370   0.029
 6236SOL    HW220716   0.386   8.284  11.035
 6237SOL     OW20717   1.524   7.678   9.445
 6237SOL    HW120718   1.433   7.652   9.467
 6237SOL    HW220719   1.544   7.744   9.514
 6238SOL     OW20720   1.061   8.814  10.160
 6238SOL    HW120721   1.067   8.740  10.096
 6238SOL    HW220722   1.130   8.876  10.130
 6239SOL     OW20723   0.289   8.271  10.286
 6239SOL    HW120724   0.382   8.302  10.282
 6239SOL    HW220725   0.299   8.182  10.323
 6240SOL     OW20726   0.329   7.981  10.317
 6240SOL    HW120727   0.293   7.895  10.289
 6240SOL    HW220728   0.404   7.990  10.255
 6241SOL     OW20729   1.152   7.650  10.778
 6241SOL    HW120730   1.181   7.712  10.845
 6241SOL    HW220731   1.186   7.691  10.696
 6242SOL     OW20732  11.084   8.774   9.509
 6242SOL    HW120733  10.989   8.781   9.493
 6242SOL    HW220734  11.091   8.684   9.547
 6243SOL     OW20735   0.145   9.243  10.273
 6243SOL    HW120736   0.110   9.169  10.219
 6243SOL    HW220737   0.228   9.262  10.225
 6244SOL     OW20738   0.492   9.023  10.233
 6244SOL    HW120739   0.570   9.080  10.249
 6244SOL    HW220740   0.529   8.956  10.174
 6245SOL     OW20741   0.960   8.245  10.542
 6245SOL    HW120742   1.033   8.213  10.598
 6245SOL    HW220743   0.886   8.195  10.580
 6246SOL     OW20744   0.002   7.985  10.416
 6246SOL    HW120745   0.087   7.957  10.379
 6246SOL    HW220746   0.024   7.999  10.510
 6247SOL     OW20747   0.785   7.993   9.721
 6247SOL    HW120748   0.818   7.949   9.639
 6247SOL    HW220749   0.712   8.048   9.688
 6248SOL     OW20750   1.656   8.073  10.493
 6248SOL    HW120751   1.640   8.003  10.558
 6248SOL    HW220752   1.740   8.041  10.453
 6249SOL     OW20753   0.259   9.009  11.037
 6249SOL    HW120754   0.196   9.037   0.004
 6249SOL    HW220755   0.290   8.926  11.072
 6250SOL     OW20756   0.710   7.920  10.575
 6250SOL    HW120757   0.665   7.838  10.550
 6250SOL    HW220758   0.699   7.976  10.496
 6251SOL     OW20759   0.913   9.140  10.751
 6251SOL    HW120760   0.894   9.107  10.662
 6251SOL    HW220761   0.899   9.236  10.744
 6252SOL     OW20762   0.459   7.939   9.495
 6252SOL    HW120763   0.528   8.006   9.510
 6252SOL    HW220764   0.380   7.996   9.493
 6253SOL     OW20765   0.182   8.588  10.788
 6253SOL    HW120766   0.167   8.532  10.867
 6253SOL    HW220767   0.186   8.523  10.715
 6254SOL     OW20768   1.314   8.501  10.541
 6254SOL    HW120769   1.326   8.427  10.478
 6254SOL    HW220770   1.252   8.559  10.494
 6255SOL     OW20771   1.314   8.300   9.656
 6255SOL    HW120772   1.229   8.261   9.677
 6255SOL    HW220773   1.318   8.284   9.559
 6256SOL     OW20774   1.750   9.202  10.438
 6256SOL    HW120775   1.822   9.226  10.376
 6256SOL    HW220776   1.747   9.105  10.429
 6257SOL     OW20777   1.239   9.175  10.446
 6257SOL    HW120778   1.328   9.198  10.417
 6257SOL    HW220779   1.245   9.077  10.452
 6258SOL     OW20780   0.074   8.730  10.336
 6258SOL    HW120781   0.084   8.746  10.432
 6258SOL    HW220782  11.098   8.673  10.334
 6259SOL     OW20783   1.694   7.600   9.820
 6259SOL    HW120784   1.759   7.577   9.752
 6259SOL    HW220785   1.679   7.514   9.863
 6260SOL     OW20786   1.367   9.028   9.802
 6260SOL    HW120787   1.424   9.041   9.725
 6260SOL    HW220788   1.322   9.113   9.811
 6261SOL     OW20789   1.250   8.372   9.992
 6261SOL    HW120790   1.331   8.318  10.003
 6261SOL    HW220791   1.282   8.441   9.931
 6262SOL     OW20792   0.814   8.702  10.755
 6262SOL    HW120793   0.783   8.734  10.842
 6262SOL    HW220794   0.737   8.723  10.701
 6263SOL     OW20795   0.669   9.059   9.468
 6263SOL    HW120796   0.676   9.069   9.371
 6263SOL    HW220797   0.616   8.977   9.476
 6264SOL     OW20798   1.627   9.163  10.686
 6264SOL    HW120799   1.672   9.189  10.603
 6264SOL    HW220800   1.619   9.247  10.733
 6265SOL     OW20801   1.846   7.618  10.271
 6265SOL    HW120802   1.866   7.528  10.241
 6265SOL    HW220803   1.757   7.636  10.232
 6266SOL     OW20804   0.260   7.743  10.010
 6266SOL    HW120805   0.168   7.774   9.996
 6266SOL    HW220806   0.266   7.745  10.107
 6267SOL     OW20807   1.181   9.083   9.341
 6267SOL    HW120808   1.189   8.987   9.354
 6267SOL    HW220809   1.133   9.089   9.257
 6268SOL     OW20810   0.799   8.433  10.698
 6268SOL    HW120811   0.844   8.415  10.614
 6268SOL    HW220812   0.828   8.524  10.720
 6269SOL     OW20813   0.921   8.364   9.583
 6269SOL    HW120814   0.999   8.402   9.537
 6269SOL    HW220815   0.956   8.282   9.622
 6270SOL     OW20816   1.550   9.077   9.346
 6270SOL    HW120817   1.454   9.088   9.338
 6270SOL    HW220818   1.577   9.073   9.252
 6271SOL     OW20819   0.392   8.745  10.808
 6271SOL    HW120820   0.367   8.819  10.749
 6271SOL    HW220821   0.316   8.685  10.797
 6272SOL     OW20822   1.609   8.749  10.578
 6272SOL    HW120823   1.658   8.725  10.658
 6272SOL    HW220824   1.549   8.819  10.613
 6273SOL     OW20825   1.033   8.575  10.029
 6273SOL    HW120826   0.961   8.517  10.061
 6273SOL    HW220827   1.098   8.509   9.998
 6274SOL     OW20828   1.034   7.686  10.300
 6274SOL    HW120829   1.019   7.642  10.214
 6274SOL    HW220830   1.029   7.610  10.360
 6275SOL     OW20831   0.589   8.887   9.799
 6275SOL    HW120832   0.660   8.867   9.734
 6275SOL    HW220833   0.526   8.938   9.748
 6276SOL     OW20834   1.703   7.836  10.705
 6276SOL    HW120835   1.766   7.910  10.706
 6276SOL    HW220836   1.744   7.776  10.639
 6277SOL     OW20837   0.240   8.791   9.576
 6277SOL    HW120838   0.143   8.796   9.564
 6277SOL    HW220839   0.247   8.809   9.672
 6278SOL     OW20840   0.138   8.476  11.031
 6278SOL    HW120841   0.070   8.440  11.089
 6278SOL    HW220842   0.220   8.431  11.061
 6279SOL     OW20843   0.685   7.645  10.779
 6279SOL    HW120844   0.770   7.622  10.736
 6279SOL    HW220845   0.715   7.666  10.870
 6280SOL     OW20846   0.094   7.783   9.359
 6280SOL    HW120847   0.001   7.775   9.333
 6280SOL    HW220848   0.122   7.860   9.305
 6281SOL     OW20849   1.454   8.299  10.734
 6281SOL    HW120850   1.398   8.363  10.688
 6281SOL    HW220851   1.540   8.321  10.694
 6282SOL     OW20852   0.070   7.613   9.615
 6282SOL    HW120853   0.079   7.688   9.556
 6282SOL    HW220854   0.152   7.563   9.599
 6283SOL     OW20855   1.195   8.807   9.428
 6283SOL    HW120856   1.124   8.741   9.428
 6283SOL    HW220857   1.224   8.805   9.521
 6284SOL     OW20858   0.604   8.253  10.747
 6284SOL    HW120859   0.659   8.334  10.742
 6284SOL    HW220860   0.674   8.186  10.755
 6285SOL     OW20861   1.520   9.193  10.291
 6285SOL    HW120862   1.552   9.243  10.216
 6285SOL    HW220863   1.594   9.198  10.354
 6286SOL     OW20864   0.711   7.999  11.011
 6286SOL    HW120865   0.745   8.071  11.068
 6286SOL    HW220866   0.758   7.922  11.043
 6287SOL     OW20867   0.388   9.172  10.865
 6287SOL    HW120868   0.307   9.225  10.853
 6287SOL    HW220869   0.355   9.107  10.930
 6288SOL     OW20870   1.684   8.342  10.582
 6288SOL    HW120871   1.676   8.253  10.545
 6288SOL    HW220872   1.661   8.398  10.507
 6289SOL     OW20873   1.201   7.776   9.784
 6289SOL    HW120874   1.266   7.703   9.775
 6289SOL    HW220875   1.239   7.827   9.859
 6290SOL     OW20876   0.611   8.184   9.965
 6290SOL    HW120877   0.637   8.278   9.962
 6290SOL    HW220878   0.542   8.179   9.897
 6291SOL     OW20879   1.771   7.739  10.951
 6291SOL    HW120880   1.743   7.768  10.862
 6291SOL    HW220881   1.695   7.762  11.006
 6292SOL     OW20882   1.763   8.396  10.837
 6292SOL    HW120883   1.748   8.491  10.847
 6292SOL    HW220884   1.749   8.383  10.741
 6293SOL     OW20885   0.846   8.821   9.336
 6293SOL    HW120886   0.834   8.840   9.430
 6293SOL    HW220887   0.894   8.899   9.301
 6294SOL     OW20888   0.668   9.243  10.231
 6294SOL    HW120889   0.664   9.340  10.222
 6294SOL    HW220890   0.762   9.224  10.214
 6295SOL     OW20891   0.864   8.401  10.169
 6295SOL    HW120892   0.926   8.332  10.198
 6295SOL    HW220893   0.854   8.457  10.248
 6296SOL     OW20894   1.103   8.471   9.410
 6296SOL    HW120895   1.064   8.506   9.327
 6296SOL    HW220896   1.159   8.399   9.376
 6297SOL     OW20897   1.830   8.998  10.157
 6297SOL    HW120898   1.743   8.998  10.115
 6297SOL    HW220899   1.813   8.950  10.240
 6298SOL     OW20900   0.078   8.695   9.988
 6298SOL    HW120901   0.089   8.632  10.060
 6298SOL    HW220902   0.153   8.675   9.931
 6299SOL     OW20903   0.667   8.852  10.934
 6299SOL    HW120904   0.596   8.797  10.970
 6299SOL    HW220905   0.621   8.935  10.916
 6300SOL     OW20906   1.802   7.656  10.535
 6300SOL    HW120907   1.826   7.564  10.550
 6300SOL    HW220908   1.816   7.665  10.439
 6301SOL     OW20909   0.413   7.885   9.833
 6301SOL    HW120910   0.452   7.818   9.776
 6301SOL    HW220911   0.366   7.831   9.900
 6302SOL     OW20912   1.724   8.939  10.409
 6302SOL    HW120913   1.643   8.909  10.366
 6302SOL    HW220914   1.724   8.881  10.487
 6303SOL     OW20915   0.335   8.003  10.593
 6303SOL    HW120916   0.382   7.934  10.642
 6303SOL    HW220917   0.339   7.971  10.500
 6304SOL     OW20918   0.832   9.027   9.981
 6304SOL    HW120919   0.811   9.078   9.902
 6304SOL    HW220920   0.752   8.976   9.997
 6305SOL     OW20921   1.426   7.672  10.427
 6305SOL    HW120922   1.472   7.602  10.475
 6305SOL    HW220923   1.374   7.717  10.497
 6306SOL     OW20924   1.006   7.455  10.460
 6306SOL    HW120925   0.960   7.395  10.398
 6306SOL    HW220926   1.093   7.411  10.467
 6307SOL     OW20927   0.783   8.796   9.628
 6307SOL    HW120928   0.752   8.704   9.619
 6307SOL    HW220929   0.861   8.785   9.684
 6308SOL     OW20930   0.607   8.994  10.602
 6308SOL    HW120931   0.608   9.081  10.648
 6308SOL    HW220932   0.689   8.999  10.550
 6309SOL     OW20933   1.311   7.493   9.487
 6309SOL    HW120934   1.329   7.425   9.421
 6309SOL    HW220935   1.221   7.465   9.517
 6310SOL     OW20936   1.286   7.917   9.995
 6310SOL    HW120937   1.227   7.995   9.991
 6310SOL    HW220938   1.276   7.887  10.087
 6311SOL     OW20939   1.597   7.657  10.183
 6311SOL    HW120940   1.522   7.665  10.245
 6311SOL    HW220941   1.584   7.733  10.123
 6312SOL     OW20942   0.051   8.521   9.607
 6312SOL    HW120943   0.147   8.518   9.599
 6312SOL    HW220944   0.030   8.427   9.625
 6313SOL     OW20945   0.885   9.090   9.644
 6313SOL    HW120946   0.809   9.073   9.585
 6313SOL    HW220947   0.860   9.172   9.690
 6314SOL     OW20948   0.246   9.960   0.127
 6314SOL    HW120949   0.160   9.940   0.167
 6314SOL    HW220950   0.224   9.973   0.034
 6315SOL     OW20951   0.234   9.602   1.003
 6315SOL    HW120952   0.268   9.577   1.092
 6315SOL    HW220953   0.174   9.528   0.985
 6316SOL     OW20954  11.097   9.687   0.642
 6316SOL    HW120955  11.031   9.713   0.707
 6316SOL    HW220956  11.061   9.604   0.607
 6317SOL     OW20957   0.578  10.576   1.190
 6317SOL    HW120958   0.487  10.561   1.159
 6317SOL    HW220959   0.570  10.667   1.222
 6318SOL     OW20960   1.567  10.845   0.723
 6318SOL    HW120961   1.510  10.818   0.797
 6318SOL    HW220962   1.508  10.836   0.646
 6319SOL     OW20963   1.143   9.985   0.721
 6319SOL    HW120964   1.172  10.071   0.687
 6319SOL    HW220965   1.099  10.009   0.803
 6320SOL     OW20966   1.774   9.924   0.214
 6320SOL    HW120967   1.726   9.949   0.134
 6320SOL    HW220968   1.716   9.857   0.255
 6321SOL     OW20969   0.746  10.457   1.013
 6321SOL    HW120970   0.684  10.491   1.080
 6321SOL    HW220971   0.787  10.541   0.984
 6322SOL     OW20972   0.871  10.076   1.793
 6322SOL    HW120973   0.864  10.141   1.864
 6322SOL    HW220974   0.894  10.130   1.715
 6323SOL     OW20975   0.674  10.312   0.627
 6323SOL    HW120976   0.744  10.306   0.693
 6323SOL    HW220977   0.606  10.365   0.673
 6324SOL     OW20978   0.727  10.458   1.798
 6324SOL    HW120979   0.759  10.546   1.825
 6324SOL    HW220980   0.638  10.477   1.763
 6325SOL     OW20981   0.339  10.739   1.087
 6325SOL    HW120982   0.261  10.710   1.038
 6325SOL    HW220983   0.386  10.795   1.023
 6326SOL     OW20984   1.462  10.796   1.382
 6326SOL    HW120985   1.485  10.884   1.413
 6326SOL    HW220986   1.392  10.771   1.444
 6327SOL     OW20987   0.446   9.699   1.530
 6327SOL    HW120988   0.531   9.654   1.519
 6327SOL    HW220989   0.382   9.635   1.499
 6328SOL     OW20990   1.612   9.767   0.743
 6328SOL    HW120991   1.525   9.788   0.703
 6328SOL    HW220992   1.625   9.844   0.799
 6329SOL     OW20993   1.145  10.660   1.674
 6329SOL    HW120994   1.172  10.656   1.767
 6329SOL    HW220995   1.097  10.575   1.667
 6330SOL     OW20996   0.219  10.749   0.505
 6330SOL    HW120997   0.213  10.837   0.545
 6330SOL    HW220998   0.169  10.694   0.568
 6331SOL     OW20999   0.279  10.398   0.911
 6331SOL    HW121000   0.257  10.321   0.965
 6331SOL    HW221001   0.231  10.470   0.955
 6332SOL     OW21002   0.591  10.278   0.143
 6332SOL    HW121003   0.631  10.333   0.075
 6332SOL    HW221004   0.632  10.312   0.224
 6333SOL     OW21005   1.608   9.423   1.503
 6333SOL    HW121006   1.608   9.499   1.443
 6333SOL    HW221007   1.608   9.466   1.590
 6334SOL     OW21008   0.127   9.957   0.540
 6334SOL    HW121009   0.116   9.861   0.551
 6334SOL    HW221010   0.113   9.991   0.630
 6335SOL     OW21011   0.043  10.922   0.128
 6335SOL    HW121012   0.045  10.826   0.147
 6335SOL    HW221013   0.104  10.959   0.194
 6336SOL     OW21014   1.712  10.227   0.638
 6336SOL    HW121015   1.787  10.188   0.592
 6336SOL    HW221016   1.676  10.286   0.570
 6337SOL     OW21017   1.646  10.417   0.444
 6337SOL    HW121018   1.727  10.440   0.396
 6337SOL    HW221019   1.652  10.475   0.523
 6338SOL     OW21020   0.117  10.044   1.600
 6338SOL    HW121021   0.204  10.086   1.609
 6338SOL    HW221022   0.060  10.116   1.566
 6339SOL     OW21023   0.603  10.702   0.748
 6339SOL    HW121024   0.564  10.613   0.754
 6339SOL    HW221025   0.595  10.721   0.652
 6340SOL     OW21026   1.293  10.539   1.420
 6340SOL    HW121027   1.319  10.467   1.360
 6340SOL    HW221028   1.345  10.520   1.500
 6341SOL     OW21029   0.833   9.310   0.461
 6341SOL    HW121030   0.862   9.402   0.476
 6341SOL    HW221031   0.738   9.316   0.483
 6342SOL     OW21032   0.177  10.299   1.234
 6342SOL    HW121033   0.260  10.246   1.233
 6342SOL    HW221034   0.111  10.232   1.212
 6343SOL     OW21035   1.562  10.299   0.202
 6343SOL    HW121036   1.486  10.246   0.228
 6343SOL    HW221037   1.589  10.338   0.287
 6344SOL     OW21038   1.208   0.002   1.630
 6344SOL    HW121039   1.207   0.073   1.564
 6344SOL    HW221040   1.218  11.024   1.573
 6345SOL     OW21041   0.331   9.554   1.796
 6345SOL    HW121042   0.393   9.619   1.831
 6345SOL    HW221043   0.248   9.578   1.841
 6346SOL     OW21044   1.463  10.740   0.951
 6346SOL    HW121045   1.398  10.753   1.023
 6346SOL    HW221046   1.440  10.650   0.920
 6347SOL     OW21047   0.594  10.016   0.276
 6347SOL    HW121048   0.598  10.099   0.225
 6347SOL    HW221049   0.527  10.034   0.345
 6348SOL     OW21050   1.277   9.644   0.912
 6348SOL    HW121051   1.187   9.615   0.937
 6348SOL    HW221052   1.331   9.604   0.984
 6349SOL     OW21053   1.569  10.961   0.323
 6349SOL    HW121054   1.642  11.022   0.332
 6349SOL    HW221055   1.550  10.967   0.227
 6350SOL     OW21056   0.800   9.937   1.469
 6350SOL    HW121057   0.779   9.900   1.558
 6350SOL    HW221058   0.759   9.872   1.410
 6351SOL     OW21059   1.404   9.792   1.667
 6351SOL    HW121060   1.403   9.851   1.745
 6351SOL    HW221061   1.458   9.716   1.698
 6352SOL     OW21062   0.958  10.208   1.571
 6352SOL    HW121063   0.996  10.123   1.539
 6352SOL    HW221064   0.908  10.239   1.493
 6353SOL     OW21065   0.972   9.705   1.236
 6353SOL    HW121066   0.883   9.719   1.271
 6353SOL    HW221067   0.957   9.659   1.153
 6354SOL     OW21068   1.032   9.982   0.401
 6354SOL    HW121069   1.047  10.011   0.492
 6354SOL    HW221070   0.948   9.932   0.409
 6355SOL     OW21071   0.096  10.113   0.775
 6355SOL    HW121072   0.176  10.097   0.827
 6355SOL    HW221073   0.058  10.188   0.822
 6356SOL     OW21074   0.105   0.063   1.596
 6356SOL    HW121075   0.112   0.036   1.691
 6356SOL    HW221076   0.010   0.057   1.578
 6357SOL     OW21077   0.884   9.701   0.203
 6357SOL    HW121078   0.940   9.755   0.144
 6357SOL    HW221079   0.906   9.610   0.175
 6358SOL     OW21080   1.732   9.900   1.840
 6358SOL    HW121081   1.692   9.976   1.793
 6358SOL    HW221082   1.748   9.839   1.766
 6359SOL     OW21083   1.355  10.458   0.572
 6359SOL    HW121084   1.434  10.457   0.517
 6359SOL    HW221085   1.297  10.518   0.521
 6360SOL     OW21086   0.590   9.520   0.893
 6360SOL    HW121087   0.590   9.530   0.990
 6360SOL    HW221088   0.573   9.611   0.863
 6361SOL     OW21089   0.997  10.759   0.482
 6361SOL    HW121090   0.915  10.795   0.446
 6361SOL    HW221091   0.996  10.792   0.573
 6362SOL     OW21092   0.376   0.016   0.883
 6362SOL    HW121093   0.420  11.031   0.892
 6362SOL    HW221094   0.452   0.078   0.878
 6363SOL     OW21095   1.787  10.401   0.890
 6363SOL    HW121096   1.744  10.369   0.809
 6363SOL    HW221097   1.720  10.382   0.958
 6364SOL     OW21098   1.216  10.864   1.500
 6364SOL    HW121099   1.205  10.786   1.558
 6364SOL    HW221100   1.158  10.839   1.426
 6365SOL     OW21101   0.332  10.270   0.263
 6365SOL    HW121102   0.413  10.282   0.211
 6365SOL    HW221103   0.307  10.180   0.239
 6366SOL     OW21104   1.483  10.058   0.706
 6366SOL    HW121105   1.467  10.030   0.798
 6366SOL    HW221106   1.561  10.116   0.714
 6367SOL     OW21107   0.475  10.539   1.726
 6367SOL    HW121108   0.441  10.552   1.635
 6367SOL    HW221109   0.399  10.566   1.779
 6368SOL     OW21110   1.067  11.054   0.217
 6368SOL    HW121111   1.039  10.997   0.289
 6368SOL    HW221112   1.118  10.994   0.160
 6369SOL     OW21113   0.177   9.588   1.489
 6369SOL    HW121114   0.103   9.647   1.511
 6369SOL    HW221115   0.187   9.538   1.571
 6370SOL     OW21116   1.627  10.704   0.073
 6370SOL    HW121117   1.577  10.786   0.076
 6370SOL    HW221118   1.562  10.640   0.037
 6371SOL     OW21119   1.397   9.407   0.458
 6371SOL    HW121120   1.397   9.371   0.368
 6371SOL    HW221121   1.491   9.429   0.471
 6372SOL     OW21122   0.404  10.004   0.470
 6372SOL    HW121123   0.422   9.908   0.473
 6372SOL    HW221124   0.310  10.004   0.497
 6373SOL     OW21125   1.532   9.563   1.736
 6373SOL    HW121126   1.533   9.573   1.835
 6373SOL    HW221127   1.480   9.483   1.727
 6374SOL     OW21128   0.604   9.388   0.106
 6374SOL    HW121129   0.698   9.388   0.130
 6374SOL    HW221130   0.606   9.398   0.010
 6375SOL     OW21131   0.763   9.574   1.758
 6375SOL    HW121132   0.845   9.523   1.769
 6375SOL    HW221133   0.716   9.560   1.842
 6376SOL     OW21134   0.874  10.833   1.184
 6376SOL    HW121135   0.868  10.789   1.097
 6376SOL    HW221136   0.939  10.780   1.231
 6377SOL     OW21137   1.326   9.899   1.438
 6377SOL    HW121138   1.369   9.865   1.519
 6377SOL    HW221139   1.381   9.975   1.414
 6378SOL     OW21140   0.835  10.702   0.942
 6378SOL    HW121141   0.921  10.692   0.898
 6378SOL    HW221142   0.774  10.706   0.866
 6379SOL     OW21143   0.946   9.816   0.903
 6379SOL    HW121144   0.919   9.800   0.810
 6379SOL    HW221145   0.975   9.727   0.929
 6380SOL     OW21146   0.567   9.349   0.506
 6380SOL    HW121147   0.490   9.358   0.564
 6380SOL    HW221148   0.557   9.427   0.448
 6381SOL     OW21149   1.448  10.505   0.021
 6381SOL    HW121150   1.501  10.438   0.068
 6381SOL    HW221151   1.359  10.491   0.057
 6382SOL     OW21152   0.255   9.341   0.182
 6382SOL    HW121153   0.288   9.408   0.119
 6382SOL    HW221154   0.338   9.298   0.208
 6383SOL     OW21155   0.943   9.562   0.465
 6383SOL    HW121156   0.925   9.607   0.381
 6383SOL    HW221157   1.038   9.580   0.477
 6384SOL     OW21158   1.080   9.995   1.468
 6384SOL    HW121159   1.021   9.918   1.468
 6384SOL    HW221160   1.169   9.955   1.468
 6385SOL     OW21161   1.239  10.881   0.790
 6385SOL    HW121162   1.189  10.961   0.768
 6385SOL    HW221163   1.304  10.914   0.852
 6386SOL     OW21164   0.465  10.453   0.730
 6386SOL    HW121165   0.399  10.436   0.800
 6386SOL    HW221166   0.413  10.437   0.649
 6387SOL     OW21167   1.046   9.851   0.048
 6387SOL    HW121168   1.016   9.941   0.030
 6387SOL    HW221169   1.139   9.864   0.074
 6388SOL     OW21170   0.064   9.881   1.391
 6388SOL    HW121171   0.154   9.877   1.356
 6388SOL    HW221172   0.072   9.946   1.462
 6389SOL     OW21173   0.585   9.531   1.166
 6389SOL    HW121174   0.627   9.454   1.206
 6389SOL    HW221175   0.493   9.525   1.200
 6390SOL     OW21176   0.877   9.745   0.657
 6390SOL    HW121177   0.827   9.804   0.599
 6390SOL    HW221178   0.895   9.671   0.596
 6391SOL     OW21179   1.012   9.382   0.769
 6391SOL    HW121180   0.964   9.367   0.686
 6391SOL    HW221181   0.989   9.302   0.821
 6392SOL     OW21182   1.424  10.489   0.876
 6392SOL    HW121183   1.345  10.434   0.878
 6392SOL    HW221184   1.443  10.490   0.780
 6393SOL     OW21185   1.450   9.903   0.979
 6393SOL    HW121186   1.405   9.818   0.995
 6393SOL    HW221187   1.523   9.902   1.044
 6394SOL     OW21188   1.859  10.154   0.381
 6394SOL    HW121189   1.900  10.086   0.438
 6394SOL    HW221190   1.827  10.099   0.309
 6395SOL     OW21191   0.488  10.753   0.142
 6395SOL    HW121192   0.410  10.730   0.198
 6395SOL    HW221193   0.478  10.687   0.071
 6396SOL     OW21194   1.667  10.573   0.656
 6396SOL    HW121195   1.762  10.587   0.668
 6396SOL    HW221196   1.630  10.660   0.678
 6397SOL     OW21197   1.386   9.913   0.078
 6397SOL    HW121198   1.351   9.878   0.162
 6397SOL    HW221199   1.447   9.843   0.052
 6398SOL     OW21200   0.527   9.541   0.316
 6398SOL    HW121201   0.546   9.483   0.239
 6398SOL    HW221202   0.497   9.622   0.270
 6399SOL     OW21203   1.738  10.512   1.597
 6399SOL    HW121204   1.831  10.492   1.577
 6399SOL    HW221205   1.745  10.582   1.663
 6400SOL     OW21206   1.057  10.674   1.358
 6400SOL    HW121207   0.980  10.631   1.400
 6400SOL    HW221208   1.131  10.619   1.388
 6401SOL     OW21209   1.588  10.981   1.643
 6401SOL    HW121210   1.584  11.050   1.574
 6401SOL    HW221211   1.683  10.965   1.649
 6402SOL     OW21212   1.132  10.516   1.110
 6402SOL    HW121213   1.058  10.542   1.165
 6402SOL    HW221214   1.107  10.554   1.024
 6403SOL     OW21215   1.591  10.387   1.072
 6403SOL    HW121216   1.596  10.456   1.141
 6403SOL    HW221217   1.530  10.428   1.007
 6404SOL     OW21218   0.927   9.405   1.412
 6404SOL    HW121219   0.954   9.394   1.320
 6404SOL    HW221220   1.003   9.454   1.450
 6405SOL     OW21221   0.999  10.432   1.728
 6405SOL    HW121222   0.906  10.444   1.754
 6405SOL    HW221223   0.994  10.351   1.674
 6406SOL     OW21224   0.714  10.378   0.366
 6406SOL    HW121225   0.698  10.347   0.457
 6406SOL    HW221226   0.802  10.339   0.346
 6407SOL     OW21227   0.391  10.133   1.270
 6407SOL    HW121228   0.470  10.133   1.328
 6407SOL    HW221229   0.369  10.038   1.269
 6408SOL     OW21230   1.269   9.688   1.278
 6408SOL    HW121231   1.283   9.765   1.337
 6408SOL    HW221232   1.180   9.704   1.242
 6409SOL     OW21233   0.035  10.866   1.372
 6409SOL    HW121234   0.012  10.941   1.315
 6409SOL    HW221235   0.133  10.871   1.374
 6410SOL     OW21236   0.344  10.421   0.488
 6410SOL    HW121237   0.379  10.499   0.443
 6410SOL    HW221238   0.344  10.355   0.417
 6411SOL     OW21239   0.562   9.849   0.863
 6411SOL    HW121240   0.582   9.915   0.792
 6411SOL    HW221241   0.619   9.878   0.936
 6412SOL     OW21242   1.234  10.649   0.414
 6412SOL    HW121243   1.291  10.723   0.442
 6412SOL    HW221244   1.145  10.687   0.429
 6413SOL     OW21245   1.299  10.772   1.164
 6413SOL    HW121246   1.355  10.783   1.243
 6413SOL    HW221247   1.252  10.690   1.182
 6414SOL     OW21248   1.570   9.924   0.475
 6414SOL    HW121249   1.530   9.967   0.553
 6414SOL    HW221250   1.587  10.000   0.418
 6415SOL     OW21251   0.315  10.841   1.330
 6415SOL    HW121252   0.311  10.795   1.244
 6415SOL    HW221253   0.410  10.865   1.331
 6416SOL     OW21254   0.414  10.042   1.599
 6416SOL    HW121255   0.482  10.087   1.547
 6416SOL    HW221256   0.450   9.952   1.605
 6417SOL     OW21257   1.624  10.088   1.690
 6417SOL    HW121258   1.531  10.118   1.686
 6417SOL    HW221259   1.661  10.129   1.609
 6418SOL     OW21260   0.989   9.421   1.757
 6418SOL    HW121261   1.056   9.490   1.748
 6418SOL    HW221262   1.036   9.345   1.718
 6419SOL     OW21263   0.492   9.335   1.746
 6419SOL    HW121264   0.454   9.280   1.675
 6419SOL    HW221265   0.427   9.408   1.753
 6420SOL     OW21266   0.611  10.190   1.047
 6420SOL    HW121267   0.633  10.284   1.051
 6420SOL    HW221268   0.550  10.178   1.121
 6421SOL     OW21269   1.339  10.170   1.024
 6421SOL    HW121270   1.253  10.136   0.997
 6421SOL    HW221271   1.392  10.090   1.022
 6422SOL     OW21272   1.232   9.826   0.288
 6422SOL    HW121273   1.233   9.752   0.353
 6422SOL    HW221274   1.164   9.884   0.327
 6423SOL     OW21275   0.310   9.510   1.245
 6423SOL    HW121276   0.250   9.538   1.317
 6423SOL    HW221277   0.292   9.413   1.245
 6424SOL     OW21278   0.059  10.610   1.273
 6424SOL    HW121279   0.110  10.560   1.339
 6424SOL    HW221280   0.044  10.695   1.319
 6425SOL     OW21281   0.739   9.943   1.065
 6425SOL    HW121282   0.813   9.917   1.008
 6425SOL    HW221283   0.717  10.035   1.040
 6426SOL     OW21284   1.761  10.266   1.846
 6426SOL    HW121285   1.715  10.200   1.791
 6426SOL    HW221286   1.698  10.276   1.918
 6427SOL     OW21287   0.277   9.352   0.605
 6427SOL    HW121288   0.271   9.446   0.631
 6427SOL    HW221289   0.308   9.312   0.689
 6428SOL     OW21290   1.607   9.685   0.356
 6428SOL    HW121291   1.637   9.623   0.425
 6428SOL    HW221292   1.586   9.767   0.407
 6429SOL     OW21293   1.060  10.053   0.977
 6429SOL    HW121294   1.029  10.067   1.069
 6429SOL    HW221295   1.027   9.963   0.958
 6430SOL     OW21296   0.975  10.861   1.712
 6430SOL    HW121297   0.986  10.919   1.636
 6430SOL    HW221298   1.022  10.781   1.685
 6431SOL     OW21299   0.337  10.195   1.815
 6431SOL    HW121300   0.420  10.213   1.861
 6431SOL    HW221301   0.364  10.123   1.756
 6432SOL     OW21302   1.522   9.583   0.110
 6432SOL    HW121303   1.458   9.521   0.147
 6432SOL    HW221304   1.565   9.617   0.190
 6433SOL     OW21305   1.287  10.157   0.026
 6433SOL    HW121306   1.324  10.068   0.042
 6433SOL    HW221307   1.260  10.152  11.034
 6434SOL     OW21308   1.077  10.634   0.857
 6434SOL    HW121309   1.077  10.560   0.792
 6434SOL    HW221310   1.135  10.701   0.818
 6435SOL     OW21311   0.288  10.123   0.977
 6435SOL    HW121312   0.376  10.141   0.940
 6435SOL    HW221313   0.302  10.038   1.021
 6436SOL     OW21314   0.343   9.850   1.007
 6436SOL    HW121315   0.304   9.762   0.993
 6436SOL    HW221316   0.420   9.847   0.947
 6437SOL     OW21317   1.163   9.671   1.700
 6437SOL    HW121318   1.117   9.732   1.762
 6437SOL    HW221319   1.253   9.709   1.700
 6438SOL     OW21320   1.156   9.517   1.484
 6438SOL    HW121321   1.164   9.576   1.562
 6438SOL    HW221322   1.197   9.571   1.414
 6439SOL     OW21323  11.097  10.648   0.209
 6439SOL    HW121324  11.004  10.646   0.182
 6439SOL    HW221325   0.013  10.554   0.231
 6440SOL     OW21326   0.130   0.014   0.972
 6440SOL    HW121327   0.102  11.042   0.914
 6440SOL    HW221328   0.224   0.021   0.944
 6441SOL     OW21329   0.517  10.891   0.927
 6441SOL    HW121330   0.603  10.934   0.938
 6441SOL    HW221331   0.540  10.822   0.861
 6442SOL     OW21332   0.963  10.089   1.228
 6442SOL    HW121333   1.022  10.066   1.302
 6442SOL    HW221334   0.879  10.053   1.260
 6443SOL     OW21335  11.090   9.907   1.093
 6443SOL    HW121336   0.062   9.872   1.041
 6443SOL    HW221337   0.009   9.874   1.182
 6444SOL     OW21338   0.204   9.839   1.751
 6444SOL    HW121339   0.258   9.790   1.687
 6444SOL    HW221340   0.166   9.909   1.694
 6445SOL     OW21341   1.386  10.213   1.649
 6445SOL    HW121342   1.412  10.307   1.643
 6445SOL    HW221343   1.372  10.190   1.555
 6446SOL     OW21344   0.793   9.863   0.401
 6446SOL    HW121345   0.819   9.800   0.330
 6446SOL    HW221346   0.725   9.916   0.356
 6447SOL     OW21347   1.642   9.929   1.194
 6447SOL    HW121348   1.612   9.866   1.261
 6447SOL    HW221349   1.722   9.886   1.159
 6448SOL     OW21350   0.260  10.856   1.732
 6448SOL    HW121351   0.212  10.919   1.787
 6448SOL    HW221352   0.240  10.771   1.775
 6449SOL     OW21353   0.695   9.782   1.272
 6449SOL    HW121354   0.649   9.706   1.235
 6449SOL    HW221355   0.703   9.843   1.196
 6450SOL     OW21356   0.454   9.776   0.190
 6450SOL    HW121357   0.519   9.848   0.199
 6450SOL    HW221358   0.371   9.828   0.188
 6451SOL     OW21359   0.168  10.443   1.466
 6451SOL    HW121360   0.177  10.385   1.543
 6451SOL    HW221361   0.178  10.381   1.391
 6452SOL     OW21362   1.323  10.343   1.235
 6452SOL    HW121363   1.342  10.285   1.158
 6452SOL    HW221364   1.249  10.395   1.199
 6453SOL     OW21365   1.327  10.174   0.306
 6453SOL    HW121366   1.243  10.144   0.343
 6453SOL    HW221367   1.308  10.176   0.211
 6454SOL     OW21368   1.759  11.026   1.151
 6454SOL    HW121369   1.805  11.064   1.075
 6454SOL    HW221370   1.736  10.936   1.121
 6455SOL     OW21371   1.234  11.030   1.091
 6455SOL    HW121372   1.321  11.054   1.059
 6455SOL    HW221373   1.246  10.935   1.113
 6456SOL     OW21374   0.117  10.598   1.006
 6456SOL    HW121375   0.102  10.584   1.102
 6456SOL    HW221376   0.061  10.530   0.966
 6457SOL     OW21377   0.662  10.949   1.729
 6457SOL    HW121378   0.606  11.029   1.728
 6457SOL    HW221379   0.742  10.980   1.683
 6458SOL     OW21380   0.906   9.429   0.155
 6458SOL    HW121381   0.953   9.387   0.082
 6458SOL    HW221382   0.945   9.380   0.229
 6459SOL     OW21383   1.686   9.460   0.507
 6459SOL    HW121384   1.756   9.444   0.442
 6459SOL    HW221385   1.681   9.374   0.553
 6460SOL     OW21386   1.389  10.865   0.492
 6460SOL    HW121387   1.459  10.884   0.427
 6460SOL    HW221388   1.345  10.950   0.496
 6461SOL     OW21389   0.129   0.008   1.854
 6461SOL    HW121390   0.083  11.030   1.887
 6461SOL    HW221391   0.188   0.027   1.929
 6462SOL     OW21392   1.259  10.212   0.638
 6462SOL    HW121393   1.340  10.161   0.657
 6462SOL    HW221394   1.296  10.294   0.600
 6463SOL     OW21395   0.804  10.580   1.437
 6463SOL    HW121396   0.771  10.624   1.519
 6463SOL    HW221397   0.728  10.593   1.378
 6464SOL     OW21398   0.697  10.915   0.170
 6464SOL    HW121399   0.677  10.940   0.080
 6464SOL    HW221400   0.625  10.852   0.189
 6465SOL     OW21401   1.857   9.486   0.980
 6465SOL    HW121402   1.870   9.394   0.950
 6465SOL    HW221403   1.770   9.509   0.940
 6466SOL     OW21404   0.263   9.612   0.706
 6466SOL    HW121405   0.172   9.635   0.681
 6466SOL    HW221406   0.264   9.627   0.802
 6467SOL     OW21407   1.225  10.911   0.046
 6467SOL    HW121408   1.223  10.817   0.071
 6467SOL    HW221409   1.157  10.916  11.078
 6468SOL     OW21410   0.817  10.320   1.364
 6468SOL    HW121411   0.855  10.317   1.276
 6468SOL    HW221412   0.823  10.415   1.390
 6469SOL     OW21413   0.936  10.254   0.294
 6469SOL    HW121414   0.999  10.279   0.224
 6469SOL    HW221415   0.949  10.158   0.303
 6470SOL     OW21416   1.505  10.967   0.060
 6470SOL    HW121417   1.414  10.933   0.051
 6470SOL    HW221418   1.538  10.970  11.071
 6471SOL     OW21419   0.389  10.592   1.480
 6471SOL    HW121420   0.359  10.678   1.450
 6471SOL    HW221421   0.311  10.536   1.463
 6472SOL     OW21422   1.595  10.593   1.268
 6472SOL    HW121423   1.631  10.567   1.354
 6472SOL    HW221424   1.536  10.666   1.295
 6473SOL     OW21425   1.052  10.402   0.713
 6473SOL    HW121426   0.981  10.343   0.746
 6473SOL    HW221427   1.110  10.339   0.668
 6474SOL     OW21428   1.037   9.539   0.986
 6474SOL    HW121429   1.023   9.495   0.900
 6474SOL    HW221430   1.036   9.463   1.047
 6475SOL     OW21431   0.593  10.824   0.491
 6475SOL    HW121432   0.642  10.773   0.423
 6475SOL    HW221433   0.557  10.899   0.441
 6476SOL     OW21434   1.711   9.677   1.386
 6476SOL    HW121435   1.773   9.752   1.383
 6476SOL    HW221436   1.755   9.613   1.326
 6477SOL     OW21437   0.252  10.693   0.251
 6477SOL    HW121438   0.158  10.672   0.235
 6477SOL    HW221439   0.252  10.711   0.348
 6478SOL     OW21440   0.146  10.362   1.741
 6478SOL    HW121441   0.067  10.318   1.773
 6478SOL    HW221442   0.217  10.301   1.774
 6479SOL     OW21443   0.688   9.505   1.497
 6479SOL    HW121444   0.776   9.471   1.472
 6479SOL    HW221445   0.704   9.536   1.588
 6480SOL     OW21446   0.072   9.656   0.072
 6480SOL    HW121447  11.090   9.616   0.041
 6480SOL    HW221448   0.090   9.719   0.001
 6481SOL     OW21449   1.458  10.152   1.386
 6481SOL    HW121450   1.414  10.220   1.331
 6481SOL    HW221451   1.551  10.174   1.372
 6482SOL     OW21452   0.056   9.478   0.319
 6482SOL    HW121453   0.059   9.551   0.255
 6482SOL    HW221454   0.130   9.423   0.288
 6483SOL     OW21455   1.180  10.647   0.135
 6483SOL    HW121456   1.095  10.605   0.118
 6483SOL    HW221457   1.200  10.618   0.226
 6484SOL     OW21458   0.619  10.135   1.408
 6484SOL    HW121459   0.678  10.211   1.399
 6484SOL    HW221460   0.683  10.066   1.434
 6485SOL     OW21461   1.504  11.072   0.980
 6485SOL    HW121462   1.533   0.004   0.894
 6485SOL    HW221463   1.587  11.066   1.028
 6486SOL     OW21464   0.724   9.848   1.702
 6486SOL    HW121465   0.757   9.914   1.765
 6486SOL    HW221466   0.739   9.764   1.746
 6487SOL     OW21467   1.469  10.468   1.631
 6487SOL    HW121468   1.451  10.483   1.726
 6487SOL    HW221469   1.566  10.479   1.628
 6488SOL     OW21470   1.708  10.192   1.230
 6488SOL    HW121471   1.681  10.102   1.204
 6488SOL    HW221472   1.662  10.248   1.165
 6489SOL     OW21473   1.219   9.638   0.479
 6489SOL    HW121474   1.280   9.562   0.471
 6489SOL    HW221475   1.257   9.688   0.554
 6490SOL     OW21476   0.595  10.038   0.671
 6490SOL    HW121477   0.629  10.128   0.662
 6490SOL    HW221478   0.531  10.033   0.597
 6491SOL     OW21479   1.760   9.682   1.646
 6491SOL    HW121480   1.731   9.687   1.553
 6491SOL    HW221481   1.686   9.634   1.686
 6492SOL     OW21482   1.739  10.231   1.498
 6492SOL    HW121483   1.736  10.327   1.505
 6492SOL    HW221484   1.752  10.217   1.402
 6493SOL     OW21485   0.870  10.692   0.070
 6493SOL    HW121486   0.778  10.703   0.098
 6493SOL    HW221487   0.888  10.774   0.023
 6494SOL     OW21488   0.875  10.251   0.846
 6494SOL    HW121489   0.922  10.188   0.902
 6494SOL    HW221490   0.839  10.314   0.912
 6495SOL     OW21491   1.093  10.334   0.082
 6495SOL    HW121492   1.060  10.329  11.091
 6495SOL    HW221493   1.172  10.278   0.074
 6496SOL     OW21494   1.815  10.922   0.856
 6496SOL    HW121495   1.735  10.885   0.814
 6496SOL    HW221496   1.857  10.845   0.895
 6497SOL     OW21497   0.204  10.620   1.837
 6497SOL    HW121498   0.187  10.531   1.800
 6497SOL    HW221499   0.180  10.609   1.930
 6498SOL     OW21500   0.092  10.545   0.644
 6498SOL    HW121501   0.093  10.499   0.729
 6498SOL    HW221502   0.156  10.495   0.591
 6499SOL     OW21503   0.669  10.702   1.630
 6499SOL    HW121504   0.591  10.650   1.657
 6499SOL    HW221505   0.652  10.790   1.668
 6500SOL     OW21506   1.833   9.475   1.239
 6500SOL    HW121507   1.832   9.379   1.246
 6500SOL    HW221508   1.841   9.487   1.142
 6501SOL     OW21509   0.411   9.734   0.500
 6501SOL    HW121510   0.461   9.668   0.450
 6501SOL    HW221511   0.377   9.684   0.576
 6502SOL     OW21512   1.693  10.774   1.086
 6502SOL    HW121513   1.615  10.772   1.027
 6502SOL    HW221514   1.675  10.696   1.142
 6503SOL     OW21515   0.323   9.859   1.279
 6503SOL    HW121516   0.381   9.802   1.331
 6503SOL    HW221517   0.338   9.829   1.188
 6504SOL     OW21518   0.822  10.901   0.693
 6504SOL    HW121519   0.819  10.979   0.634
 6504SOL    HW221520   0.735  10.861   0.679
 6505SOL     OW21521   1.424   9.557   1.105
 6505SOL    HW121522   1.453   9.475   1.146
 6505SOL    HW221523   1.373   9.602   1.177
 6506SOL     OW21524   1.016   9.315   1.158
 6506SOL    HW121525   0.959   9.242   1.133
 6506SOL    HW221526   1.105   9.273   1.155
 6507SOL     OW21527   0.739  10.649   0.331
 6507SOL    HW121528   0.725  10.554   0.342
 6507SOL    HW221529   0.828  10.653   0.296
 6508SOL     OW21530   0.600  10.862   1.280
 6508SOL    HW121531   0.616  10.941   1.331
 6508SOL    HW221532   0.687  10.845   1.242
 6509SOL     OW21533   1.327   9.342   0.164
 6509SOL    HW121534   1.348   9.298   0.081
 6509SOL    HW221535   1.238   9.304   0.184
 6510SOL     OW21536   1.319   9.786   0.689
 6510SOL    HW121537   1.256   9.862   0.696
 6510SOL    HW221538   1.299   9.740   0.773
 6511SOL     OW21539   1.610   9.517   0.866
 6511SOL    HW121540   1.523   9.514   0.909
 6511SOL    HW221541   1.601   9.594   0.807
 6512SOL     OW21542   0.068  10.401   0.275
 6512SOL    HW121543   0.163  10.381   0.277
 6512SOL    HW221544   0.031  10.316   0.304
 6513SOL     OW21545   0.246   9.958   2.000
 6513SOL    HW121546   0.161   9.933   2.038
 6513SOL    HW221547   0.243   9.920   1.910
 6514SOL     OW21548   0.231   9.602   2.866
 6514SOL    HW121549   0.264   9.576   2.955
 6514SOL    HW221550   0.175   9.528   2.844
 6515SOL     OW21551   0.004   9.688   2.502
 6515SOL    HW121552  11.024   9.718   2.543
 6515SOL    HW221553  11.080   9.604   2.460
 6516SOL     OW21554   0.584  10.587   3.049
 6516SOL    HW121555   0.506  10.581   2.994
 6516SOL    HW221556   0.568  10.671   3.095
 6517SOL     OW21557   1.556  10.849   2.583
 6517SOL    HW121558   1.502  10.831   2.663
 6517SOL    HW221559   1.489  10.861   2.513
 6518SOL     OW21560   1.143   9.985   2.575
 6518SOL    HW121561   1.178  10.072   2.555
 6518SOL    HW221562   1.099   9.998   2.660
 6519SOL     OW21563   1.774   9.916   2.103
 6519SOL    HW121564   1.756   9.915   2.007
 6519SOL    HW221565   1.721   9.841   2.134
 6520SOL     OW21566   0.744  10.457   2.866
 6520SOL    HW121567   0.694  10.493   2.942
 6520SOL    HW221568   0.785  10.539   2.832
 6521SOL     OW21569   0.869  10.074   3.649
 6521SOL    HW121570   0.867  10.135   3.724
 6521SOL    HW221571   0.903  10.129   3.576
 6522SOL     OW21572   0.693  10.338   2.506
 6522SOL    HW121573   0.745  10.310   2.584
 6522SOL    HW221574   0.614  10.379   2.548
 6523SOL     OW21575   0.722  10.462   3.660
 6523SOL    HW121576   0.756  10.550   3.685
 6523SOL    HW221577   0.633  10.483   3.626
 6524SOL     OW21578   0.349  10.750   2.941
 6524SOL    HW121579   0.276  10.726   2.882
 6524SOL    HW221580   0.398  10.815   2.888
 6525SOL     OW21581   1.469  10.798   3.247
 6525SOL    HW121582   1.495  10.888   3.270
 6525SOL    HW221583   1.410  10.777   3.322
 6526SOL     OW21584   0.455   9.701   3.365
 6526SOL    HW121585   0.538   9.651   3.356
 6526SOL    HW221586   0.388   9.632   3.358
 6527SOL     OW21587   1.619   9.765   2.601
 6527SOL    HW121588   1.540   9.790   2.550
 6527SOL    HW221589   1.608   9.819   2.680
 6528SOL     OW21590   1.146  10.664   3.538
 6528SOL    HW121591   1.178  10.661   3.630
 6528SOL    HW221592   1.099  10.578   3.533
 6529SOL     OW21593   0.235  10.751   2.388
 6529SOL    HW121594   0.209  10.837   2.421
 6529SOL    HW221595   0.178  10.691   2.441
 6530SOL     OW21596   0.279  10.401   2.766
 6530SOL    HW121597   0.276  10.321   2.821
 6530SOL    HW221598   0.223  10.465   2.813
 6531SOL     OW21599   0.577  10.303   1.984
 6531SOL    HW121600   0.633  10.343   1.914
 6531SOL    HW221601   0.620  10.336   2.065
 6532SOL     OW21602   1.615   9.422   3.361
 6532SOL    HW121603   1.609   9.493   3.296
 6532SOL    HW221604   1.613   9.471   3.445
 6533SOL     OW21605   0.123   9.955   2.416
 6533SOL    HW121606   0.116   9.858   2.421
 6533SOL    HW221607   0.114   9.983   2.509
 6534SOL     OW21608   0.058  10.890   1.975
 6534SOL    HW121609   0.053  10.796   2.002
 6534SOL    HW221610   0.048  10.936   2.059
 6535SOL     OW21611   1.688  10.235   2.508
 6535SOL    HW121612   1.760  10.184   2.469
 6535SOL    HW221613   1.657  10.286   2.432
 6536SOL     OW21614   1.653  10.425   2.309
 6536SOL    HW121615   1.745  10.422   2.275
 6536SOL    HW221616   1.660  10.489   2.382
 6537SOL     OW21617   0.120  10.031   3.459
 6537SOL    HW121618   0.208  10.071   3.463
 6537SOL    HW221619   0.061  10.107   3.454
 6538SOL     OW21620   0.609  10.696   2.629
 6538SOL    HW121621   0.565  10.609   2.637
 6538SOL    HW221622   0.597  10.711   2.533
 6539SOL     OW21623   1.293  10.541   3.287
 6539SOL    HW121624   1.327  10.474   3.225
 6539SOL    HW221625   1.344  10.521   3.367
 6540SOL     OW21626   0.815   9.288   2.361
 6540SOL    HW121627   0.856   9.376   2.341
 6540SOL    HW221628   0.721   9.312   2.365
 6541SOL     OW21629   0.176  10.292   3.106
 6541SOL    HW121630   0.258  10.242   3.090
 6541SOL    HW221631   0.108  10.231   3.076
 6542SOL     OW21632   1.535  10.284   2.060
 6542SOL    HW121633   1.455  10.241   2.096
 6542SOL    HW221634   1.582  10.306   2.141
 6543SOL     OW21635   1.209   0.004   3.485
 6543SOL    HW121636   1.201   0.071   3.415
 6543SOL    HW221637   1.222  11.023   3.434
 6544SOL     OW21638   0.323   9.556   3.650
 6544SOL    HW121639   0.381   9.613   3.703
 6544SOL    HW221640   0.237   9.564   3.696
 6545SOL     OW21641   1.468  10.734   2.821
 6545SOL    HW121642   1.406  10.741   2.896
 6545SOL    HW221643   1.445  10.646   2.785
 6546SOL     OW21644   0.556  10.023   2.111
 6546SOL    HW121645   0.586  10.111   2.082
 6546SOL    HW221646   0.495  10.044   2.184
 6547SOL     OW21647   1.286   9.641   2.778
 6547SOL    HW121648   1.195   9.611   2.797
 6547SOL    HW221649   1.336   9.604   2.853
 6548SOL     OW21650   1.572  10.940   2.172
 6548SOL    HW121651   1.615  11.022   2.197
 6548SOL    HW221652   1.561  10.949   2.076
 6549SOL     OW21653   0.801   9.952   3.329
 6549SOL    HW121654   0.783   9.912   3.417
 6549SOL    HW221655   0.765   9.884   3.269
 6550SOL     OW21656   1.396   9.788   3.536
 6550SOL    HW121657   1.400   9.846   3.613
 6550SOL    HW221658   1.454   9.714   3.561
 6551SOL     OW21659   0.966  10.220   3.438
 6551SOL    HW121660   1.001  10.133   3.410
 6551SOL    HW221661   0.905  10.242   3.365
 6552SOL     OW21662   0.973   9.709   3.082
 6552SOL    HW121663   0.883   9.732   3.110
 6552SOL    HW221664   0.959   9.650   3.007
 6553SOL     OW21665   1.046   9.985   2.278
 6553SOL    HW121666   1.057   9.971   2.374
 6553SOL    HW221667   0.960   9.941   2.264
 6554SOL     OW21668   0.097  10.113   2.641
 6554SOL    HW121669   0.176  10.096   2.695
 6554SOL    HW221670   0.080  10.205   2.661
 6555SOL     OW21671   0.102   0.063   3.455
 6555SOL    HW121672   0.119   0.032   3.547
 6555SOL    HW221673   0.006   0.071   3.453
 6556SOL     OW21674   0.861   9.670   2.064
 6556SOL    HW121675   0.922   9.701   1.996
 6556SOL    HW221676   0.911   9.605   2.115
 6557SOL     OW21677   1.731   9.891   3.700
 6557SOL    HW121678   1.688   9.968   3.657
 6557SOL    HW221679   1.750   9.836   3.623
 6558SOL     OW21680   1.351  10.456   2.413
 6558SOL    HW121681   1.437  10.457   2.368
 6558SOL    HW221682   1.305  10.527   2.364
 6559SOL     OW21683   0.584   9.514   2.755
 6559SOL    HW121684   0.580   9.526   2.852
 6559SOL    HW221685   0.568   9.604   2.723
 6560SOL     OW21686   0.978  10.756   2.347
 6560SOL    HW121687   0.927  10.808   2.284
 6560SOL    HW221688   0.956  10.800   2.432
 6561SOL     OW21689   0.363   0.029   2.732
 6561SOL    HW121690   0.402  11.045   2.758
 6561SOL    HW221691   0.442   0.086   2.722
 6562SOL     OW21692   1.794  10.393   2.756
 6562SOL    HW121693   1.752  10.367   2.673
 6562SOL    HW221694   1.723  10.378   2.822
 6563SOL     OW21695   1.208  10.865   3.360
 6563SOL    HW121696   1.201  10.785   3.415
 6563SOL    HW221697   1.157  10.840   3.282
 6564SOL     OW21698   0.329  10.268   2.117
 6564SOL    HW121699   0.408  10.294   2.066
 6564SOL    HW221700   0.307  10.182   2.079
 6565SOL     OW21701   1.468  10.073   2.585
 6565SOL    HW121702   1.469  10.024   2.668
 6565SOL    HW221703   1.556  10.116   2.585
 6566SOL     OW21704   0.471  10.540   3.587
 6566SOL    HW121705   0.441  10.545   3.494
 6566SOL    HW221706   0.391  10.565   3.633
 6567SOL     OW21707   1.083  11.066   2.111
 6567SOL    HW121708   0.994  11.045   2.141
 6567SOL    HW221709   1.088  11.030   2.021
 6568SOL     OW21710   0.179   9.588   3.360
 6568SOL    HW121711   0.105   9.638   3.399
 6568SOL    HW221712   0.204   9.530   3.432
 6569SOL     OW21713   1.617  10.688   1.949
 6569SOL    HW121714   1.565  10.770   1.944
 6569SOL    HW221715   1.549  10.621   1.930
 6570SOL     OW21716   1.395   9.412   2.307
 6570SOL    HW121717   1.386   9.379   2.217
 6570SOL    HW221718   1.487   9.442   2.311
 6571SOL     OW21719   0.388  10.017   2.334
 6571SOL    HW121720   0.414   9.923   2.345
 6571SOL    HW221721   0.292  10.010   2.351
 6572SOL     OW21722   1.540   9.564   3.596
 6572SOL    HW121723   1.536   9.576   3.694
 6572SOL    HW221724   1.491   9.481   3.586
 6573SOL     OW21725   0.610   9.434   1.960
 6573SOL    HW121726   0.698   9.397   1.975
 6573SOL    HW221727   0.580   9.389   1.878
 6574SOL     OW21728   0.754   9.569   3.617
 6574SOL    HW121729   0.837   9.519   3.625
 6574SOL    HW221730   0.716   9.564   3.706
 6575SOL     OW21731   0.874  10.828   3.042
 6575SOL    HW121732   0.863  10.787   2.955
 6575SOL    HW221733   0.942  10.774   3.085
 6576SOL     OW21734   1.326   9.905   3.304
 6576SOL    HW121735   1.368   9.868   3.385
 6576SOL    HW221736   1.389   9.974   3.278
 6577SOL     OW21737   0.843  10.695   2.789
 6577SOL    HW121738   0.916  10.713   2.728
 6577SOL    HW221739   0.766  10.702   2.730
 6578SOL     OW21740   0.937   9.847   2.761
 6578SOL    HW121741   0.914   9.835   2.666
 6578SOL    HW221742   0.965   9.757   2.781
 6579SOL     OW21743   0.556   9.357   2.362
 6579SOL    HW121744   0.479   9.363   2.420
 6579SOL    HW221745   0.548   9.439   2.308
 6580SOL     OW21746   1.438  10.490   1.896
 6580SOL    HW121747   1.471  10.417   1.951
 6580SOL    HW221748   1.347  10.502   1.927
 6581SOL     OW21749   0.299   9.334   2.068
 6581SOL    HW121750   0.363   9.400   2.037
 6581SOL    HW221751   0.357   9.272   2.116
 6582SOL     OW21752   0.927   9.528   2.300
 6582SOL    HW121753   0.879   9.606   2.336
 6582SOL    HW221754   1.014   9.551   2.334
 6583SOL     OW21755   1.081  10.001   3.333
 6583SOL    HW121756   1.026   9.921   3.334
 6583SOL    HW221757   1.171   9.965   3.330
 6584SOL     OW21758   1.230  10.884   2.677
 6584SOL    HW121759   1.181  10.959   2.642
 6584SOL    HW221760   1.290  10.927   2.739
 6585SOL     OW21761   0.466  10.459   2.590
 6585SOL    HW121762   0.396  10.439   2.657
 6585SOL    HW221763   0.422  10.432   2.506
 6586SOL     OW21764   1.060   9.852   1.875
 6586SOL    HW121765   1.001   9.929   1.865
 6586SOL    HW221766   1.116   9.875   1.949
 6587SOL     OW21767   0.063   9.874   3.249
 6587SOL    HW121768   0.155   9.866   3.218
 6587SOL    HW221769   0.074   9.934   3.325
 6588SOL     OW21770   0.573   9.535   3.026
 6588SOL    HW121771   0.622   9.466   3.071
 6588SOL    HW221772   0.483   9.523   3.060
 6589SOL     OW21773   1.026   9.361   2.618
 6589SOL    HW121774   0.963   9.354   2.545
 6589SOL    HW221775   1.006   9.283   2.673
 6590SOL     OW21776   1.420  10.487   2.738
 6590SOL    HW121777   1.390  10.395   2.745
 6590SOL    HW221778   1.465  10.487   2.653
 6591SOL     OW21779   1.475   9.880   2.839
 6591SOL    HW121780   1.409   9.812   2.857
 6591SOL    HW221781   1.535   9.873   2.915
 6592SOL     OW21782   1.850  10.133   2.260
 6592SOL    HW121783   1.903  10.074   2.317
 6592SOL    HW221784   1.835  10.074   2.184
 6593SOL     OW21785   0.479  10.745   2.057
 6593SOL    HW121786   0.403  10.701   2.099
 6593SOL    HW221787   0.501  10.682   1.989
 6594SOL     OW21788   1.664  10.585   2.530
 6594SOL    HW121789   1.760  10.598   2.531
 6594SOL    HW221790   1.630  10.675   2.546
 6595SOL     OW21791   1.399   9.911   1.918
 6595SOL    HW121792   1.351   9.877   1.996
 6595SOL    HW221793   1.484   9.867   1.928
 6596SOL     OW21794   0.526   9.549   2.183
 6596SOL    HW121795   0.570   9.511   2.105
 6596SOL    HW221796   0.495   9.633   2.145
 6597SOL     OW21797   1.734  10.520   3.453
 6597SOL    HW121798   1.828  10.500   3.437
 6597SOL    HW221799   1.739  10.612   3.483
 6598SOL     OW21800   1.064  10.670   3.201
 6598SOL    HW121801   0.984  10.637   3.246
 6598SOL    HW221802   1.136  10.621   3.248
 6599SOL     OW21803   1.586  10.964   3.496
 6599SOL    HW121804   1.595  11.036   3.432
 6599SOL    HW221805   1.673  10.921   3.494
 6600SOL     OW21806   1.111  10.512   2.973
 6600SOL    HW121807   1.073  10.556   3.050
 6600SOL    HW221808   1.072  10.562   2.900
 6601SOL     OW21809   1.588  10.395   2.941
 6601SOL    HW121810   1.600  10.452   3.019
 6601SOL    HW221811   1.530  10.449   2.885
 6602SOL     OW21812   0.929   9.400   3.277
 6602SOL    HW121813   0.955   9.391   3.184
 6602SOL    HW221814   1.006   9.447   3.316
 6603SOL     OW21815   1.000  10.441   3.597
 6603SOL    HW121816   0.905  10.451   3.618
 6603SOL    HW221817   1.000  10.361   3.541
 6604SOL     OW21818   0.700  10.387   2.211
 6604SOL    HW121819   0.677  10.356   2.300
 6604SOL    HW221820   0.786  10.341   2.197
 6605SOL     OW21821   0.401  10.126   3.105
 6605SOL    HW121822   0.475  10.126   3.170
 6605SOL    HW221823   0.368  10.036   3.115
 6606SOL     OW21824   1.268   9.690   3.145
 6606SOL    HW121825   1.285   9.768   3.201
 6606SOL    HW221826   1.176   9.704   3.114
 6607SOL     OW21827   0.032  10.864   3.218
 6607SOL    HW121828   0.004  10.939   3.164
 6607SOL    HW221829   0.128  10.875   3.225
 6608SOL     OW21830   0.352  10.396   2.354
 6608SOL    HW121831   0.371  10.471   2.296
 6608SOL    HW221832   0.338  10.325   2.289
 6609SOL     OW21833   0.540   9.849   2.712
 6609SOL    HW121834   0.571   9.904   2.637
 6609SOL    HW221835   0.607   9.865   2.779
 6610SOL     OW21836   1.240  10.661   2.261
 6610SOL    HW121837   1.298  10.732   2.296
 6610SOL    HW221838   1.152  10.696   2.283
 6611SOL     OW21839   1.306  10.767   3.039
 6611SOL    HW121840   1.371  10.781   3.111
 6611SOL    HW221841   1.253  10.694   3.073
 6612SOL     OW21842   1.580   9.932   2.337
 6612SOL    HW121843   1.527   9.985   2.398
 6612SOL    HW221844   1.611   9.996   2.273
 6613SOL     OW21845   0.314  10.834   3.192
 6613SOL    HW121846   0.317  10.794   3.102
 6613SOL    HW221847   0.408  10.859   3.201
 6614SOL     OW21848   0.417  10.047   3.467
 6614SOL    HW121849   0.481  10.090   3.407
 6614SOL    HW221850   0.455   9.958   3.471
 6615SOL     OW21851   1.631  10.084   3.548
 6615SOL    HW121852   1.538  10.112   3.543
 6615SOL    HW221853   1.669  10.125   3.467
 6616SOL     OW21854   0.984   9.425   3.603
 6616SOL    HW121855   1.047   9.497   3.596
 6616SOL    HW221856   1.037   9.350   3.572
 6617SOL     OW21857   0.489   9.336   3.611
 6617SOL    HW121858   0.450   9.275   3.546
 6617SOL    HW221859   0.423   9.407   3.616
 6618SOL     OW21860   0.608  10.204   2.899
 6618SOL    HW121861   0.637  10.297   2.905
 6618SOL    HW221862   0.539  10.199   2.967
 6619SOL     OW21863   1.351  10.188   2.870
 6619SOL    HW121864   1.267  10.140   2.860
 6619SOL    HW221865   1.410  10.115   2.893
 6620SOL     OW21866   1.235   9.827   2.124
 6620SOL    HW121867   1.246   9.751   2.185
 6620SOL    HW221868   1.164   9.874   2.170
 6621SOL     OW21869   0.299   9.501   3.102
 6621SOL    HW121870   0.239   9.530   3.173
 6621SOL    HW221871   0.288   9.404   3.104
 6622SOL     OW21872   0.054  10.608   3.130
 6622SOL    HW121873   0.114  10.561   3.189
 6622SOL    HW221874   0.046  10.696   3.172
 6623SOL     OW21875   0.744   9.959   2.934
 6623SOL    HW121876   0.807   9.920   2.871
 6623SOL    HW221877   0.711  10.040   2.893
 6624SOL     OW21878   1.762  10.272   3.705
 6624SOL    HW121879   1.729  10.206   3.642
 6624SOL    HW221880   1.692  10.272   3.772
 6625SOL     OW21881   0.267   9.343   2.475
 6625SOL    HW121882   0.259   9.439   2.491
 6625SOL    HW221883   0.307   9.314   2.560
 6626SOL     OW21884   1.606   9.695   2.214
 6626SOL    HW121885   1.638   9.629   2.278
 6626SOL    HW221886   1.591   9.774   2.270
 6627SOL     OW21887   1.070  10.069   2.833
 6627SOL    HW121888   1.045  10.083   2.926
 6627SOL    HW221889   1.027   9.983   2.814
 6628SOL     OW21890   0.979  10.867   3.571
 6628SOL    HW121891   0.991  10.924   3.493
 6628SOL    HW221892   1.024  10.785   3.545
 6629SOL     OW21893   1.834  10.831   3.472
 6629SOL    HW121894   1.862  10.841   3.379
 6629SOL    HW221895   1.919  10.838   3.519
 6630SOL     OW21896   0.336  10.183   3.684
 6630SOL    HW121897   0.422  10.206   3.723
 6630SOL    HW221898   0.365  10.125   3.611
 6631SOL     OW21899   1.518   9.568   1.993
 6631SOL    HW121900   1.441   9.516   2.021
 6631SOL    HW221901   1.549   9.610   2.076
 6632SOL     OW21902   1.283  10.157   1.893
 6632SOL    HW121903   1.315  10.065   1.906
 6632SOL    HW221904   1.319  10.176   1.805
 6633SOL     OW21905   1.111  10.639   2.681
 6633SOL    HW121906   1.190  10.590   2.706
 6633SOL    HW221907   1.147  10.730   2.676
 6634SOL     OW21908   0.300  10.129   2.820
 6634SOL    HW121909   0.389  10.141   2.784
 6634SOL    HW221910   0.307  10.040   2.859
 6635SOL     OW21911   0.321   9.867   2.859
 6635SOL    HW121912   0.281   9.779   2.847
 6635SOL    HW221913   0.398   9.860   2.798
 6636SOL     OW21914   1.156   9.668   3.560
 6636SOL    HW121915   1.110   9.724   3.625
 6636SOL    HW221916   1.244   9.711   3.557
 6637SOL     OW21917   1.165   9.506   3.351
 6637SOL    HW121918   1.164   9.568   3.427
 6637SOL    HW221919   1.212   9.556   3.283
 6638SOL     OW21920   0.007  10.629   2.052
 6638SOL    HW121921  11.016  10.650   2.037
 6638SOL    HW221922   0.000  10.543   2.098
 6639SOL     OW21923   0.115   0.011   2.824
 6639SOL    HW121924   0.091  11.038   2.766
 6639SOL    HW221925   0.207   0.025   2.793
 6640SOL     OW21926   0.514  10.906   2.789
 6640SOL    HW121927   0.595  10.959   2.786
 6640SOL    HW221928   0.542  10.828   2.737
 6641SOL     OW21929   0.973  10.119   3.107
 6641SOL    HW121930   1.021  10.079   3.182
 6641SOL    HW221931   0.890  10.070   3.109
 6642SOL     OW21932  11.098   9.915   2.960
 6642SOL    HW121933   0.068   9.875   2.909
 6642SOL    HW221934   0.016   9.884   3.050
 6643SOL     OW21935   0.206   9.835   3.619
 6643SOL    HW121936   0.265   9.785   3.562
 6643SOL    HW221937   0.171   9.903   3.558
 6644SOL     OW21938   1.389  10.201   3.507
 6644SOL    HW121939   1.410  10.296   3.505
 6644SOL    HW221940   1.373  10.182   3.413
 6645SOL     OW21941   0.813   9.918   2.150
 6645SOL    HW121942   0.821   9.821   2.134
 6645SOL    HW221943   0.725   9.924   2.188
 6646SOL     OW21944   1.653   9.920   3.068
 6646SOL    HW121945   1.630   9.849   3.130
 6646SOL    HW221946   1.736   9.885   3.028
 6647SOL     OW21947   0.280  10.855   3.600
 6647SOL    HW121948   0.223  10.923   3.638
 6647SOL    HW221949   0.246  10.773   3.640
 6648SOL     OW21950   0.689   9.794   3.141
 6648SOL    HW121951   0.639   9.718   3.109
 6648SOL    HW221952   0.690   9.855   3.065
 6649SOL     OW21953   0.452   9.776   2.042
 6649SOL    HW121954   0.520   9.846   2.041
 6649SOL    HW221955   0.372   9.830   2.055
 6650SOL     OW21956   0.149  10.427   3.341
 6650SOL    HW121957   0.171  10.372   3.418
 6650SOL    HW221958   0.170  10.369   3.264
 6651SOL     OW21959   1.322  10.341   3.101
 6651SOL    HW121960   1.347  10.291   3.020
 6651SOL    HW221961   1.242  10.387   3.069
 6652SOL     OW21962   1.308  10.176   2.165
 6652SOL    HW121963   1.231  10.131   2.201
 6652SOL    HW221964   1.296  10.167   2.068
 6653SOL     OW21965   1.778  11.030   3.025
 6653SOL    HW121966   1.824  11.055   2.944
 6653SOL    HW221967   1.749  10.938   3.006
 6654SOL     OW21968   1.242  11.022   2.953
 6654SOL    HW121969   1.332  11.045   2.924
 6654SOL    HW221970   1.251  10.929   2.978
 6655SOL     OW21971   0.121  10.594   2.860
 6655SOL    HW121972   0.096  10.604   2.954
 6655SOL    HW221973   0.055  10.530   2.828
 6656SOL     OW21974   0.664  10.960   3.591
 6656SOL    HW121975   0.599  11.033   3.587
 6656SOL    HW221976   0.739  10.997   3.544
 6657SOL     OW21977   1.683   9.458   2.362
 6657SOL    HW121978   1.754   9.435   2.300
 6657SOL    HW221979   1.677   9.377   2.416
 6658SOL     OW21980   1.386  10.878   2.354
 6658SOL    HW121981   1.459  10.882   2.288
 6658SOL    HW221982   1.352  10.968   2.348
 6659SOL     OW21983   0.151  11.090   3.708
 6659SOL    HW121984   0.101  11.017   3.751
 6659SOL    HW221985   0.205   0.019   3.784
 6660SOL     OW21986   1.254  10.229   2.526
 6660SOL    HW121987   1.330  10.172   2.550
 6660SOL    HW221988   1.299  10.301   2.477
 6661SOL     OW21989   0.820  10.584   3.296
 6661SOL    HW121990   0.794  10.626   3.381
 6661SOL    HW221991   0.738  10.596   3.246
 6662SOL     OW21992   0.666  10.931   2.009
 6662SOL    HW121993   0.666  10.926   1.912
 6662SOL    HW221994   0.597  10.865   2.033
 6663SOL     OW21995   1.844   9.478   2.838
 6663SOL    HW121996   1.862   9.388   2.806
 6663SOL    HW221997   1.755   9.498   2.800
 6664SOL     OW21998   0.266   9.596   2.570
 6664SOL    HW121999   0.178   9.635   2.555
 6664SOL    HW222000   0.278   9.608   2.665
 6665SOL     OW22001   1.213  10.931   1.891
 6665SOL    HW122002   1.199  10.840   1.920
 6665SOL    HW222003   1.145  10.943   1.822
 6666SOL     OW22004   0.804  10.322   3.226
 6666SOL    HW122005   0.862  10.298   3.152
 6666SOL    HW222006   0.827  10.415   3.245
 6667SOL     OW22007   0.925  10.252   2.173
 6667SOL    HW122008   0.991  10.269   2.102
 6667SOL    HW222009   0.919  10.155   2.171
 6668SOL     OW22010   1.501  10.945   1.910
 6668SOL    HW122011   1.405  10.936   1.901
 6668SOL    HW222012   1.529  10.959   1.818
 6669SOL     OW22013   0.375  10.573   3.346
 6669SOL    HW122014   0.356  10.655   3.299
 6669SOL    HW222015   0.295  10.520   3.330
 6670SOL     OW22016   1.599  10.591   3.139
 6670SOL    HW122017   1.652  10.574   3.218
 6670SOL    HW222018   1.547  10.668   3.170
 6671SOL     OW22019   1.038   9.534   2.843
 6671SOL    HW122020   1.022   9.493   2.756
 6671SOL    HW222021   1.039   9.456   2.902
 6672SOL     OW22022   0.599  10.814   2.379
 6672SOL    HW122023   0.631  10.771   2.298
 6672SOL    HW222024   0.546  10.886   2.344
 6673SOL     OW22025   1.706   9.687   3.244
 6673SOL    HW122026   1.774   9.757   3.242
 6673SOL    HW222027   1.748   9.618   3.188
 6674SOL     OW22028   0.264  10.621   2.155
 6674SOL    HW122029   0.173  10.639   2.128
 6674SOL    HW222030   0.267  10.669   2.241
 6675SOL     OW22031   0.143  10.344   3.613
 6675SOL    HW122032   0.065  10.316   3.662
 6675SOL    HW222033   0.214  10.284   3.648
 6676SOL     OW22034   0.688   9.503   3.362
 6676SOL    HW122035   0.777   9.469   3.341
 6676SOL    HW222036   0.699   9.531   3.455
 6677SOL     OW22037   0.086   9.631   1.899
 6677SOL    HW122038  11.098   9.633   1.866
 6677SOL    HW222039   0.122   9.713   1.862
 6678SOL     OW22040   1.461  10.152   3.244
 6678SOL    HW122041   1.423  10.228   3.198
 6678SOL    HW222042   1.556  10.174   3.245
 6679SOL     OW22043   0.074   9.457   2.160
 6679SOL    HW122044   0.075   9.533   2.100
 6679SOL    HW222045   0.158   9.411   2.139
 6680SOL     OW22046   1.193  10.620   1.982
 6680SOL    HW122047   1.109  10.574   1.998
 6680SOL    HW222048   1.225  10.636   2.073
 6681SOL     OW22049   0.609  10.134   3.284
 6681SOL    HW122050   0.665  10.212   3.268
 6681SOL    HW222051   0.678  10.067   3.300
 6682SOL     OW22052   1.502  11.061   2.828
 6682SOL    HW122053   1.526   0.009   2.749
 6682SOL    HW222054   1.587  11.046   2.869
 6683SOL     OW22055   0.733   9.849   3.561
 6683SOL    HW122056   0.769   9.912   3.625
 6683SOL    HW222057   0.741   9.762   3.604
 6684SOL     OW22058   1.467  10.469   3.504
 6684SOL    HW122059   1.454  10.483   3.600
 6684SOL    HW222060   1.564  10.482   3.495
 6685SOL     OW22061   1.713  10.183   3.084
 6685SOL    HW122062   1.689  10.089   3.067
 6685SOL    HW222063   1.659  10.232   3.020
 6686SOL     OW22064   1.234   9.650   2.328
 6686SOL    HW122065   1.286   9.568   2.334
 6686SOL    HW222066   1.259   9.697   2.410
 6687SOL     OW22067   0.597  10.043   2.525
 6687SOL    HW122068   0.639  10.128   2.508
 6687SOL    HW222069   0.530  10.037   2.455
 6688SOL     OW22070   1.768   9.680   3.502
 6688SOL    HW122071   1.737   9.691   3.410
 6688SOL    HW222072   1.692   9.635   3.543
 6689SOL     OW22073   1.729  10.234   3.351
 6689SOL    HW122074   1.747  10.328   3.363
 6689SOL    HW222075   1.748  10.221   3.256
 6690SOL     OW22076   0.842  10.687   1.902
 6690SOL    HW122077   0.808  10.735   1.979
 6690SOL    HW222078   0.871  10.758   1.843
 6691SOL     OW22079   0.891  10.279   2.696
 6691SOL    HW122080   0.915  10.201   2.748
 6691SOL    HW222081   0.848  10.334   2.765
 6692SOL     OW22082   1.074  10.308   1.960
 6692SOL    HW122083   1.056  10.360   1.880
 6692SOL    HW222084   1.146  10.249   1.929
 6693SOL     OW22085   1.851  10.893   2.710
 6693SOL    HW122086   1.772  10.866   2.663
 6693SOL    HW222087   1.865  10.820   2.771
 6694SOL     OW22088   0.189  10.614   3.688
 6694SOL    HW122089   0.181  10.521   3.660
 6694SOL    HW222090   0.157  10.610   3.779
 6695SOL     OW22091   0.102  10.550   2.505
 6695SOL    HW122092   0.091  10.516   2.594
 6695SOL    HW222093   0.161  10.486   2.464
 6696SOL     OW22094   0.667  10.710   3.486
 6696SOL    HW122095   0.586  10.662   3.512
 6696SOL    HW222096   0.653  10.798   3.525
 6697SOL     OW22097   1.808   9.485   3.098
 6697SOL    HW122098   1.823   9.390   3.103
 6697SOL    HW222099   1.823   9.501   3.003
 6698SOL     OW22100   0.414   9.748   2.384
 6698SOL    HW122101   0.480   9.693   2.339
 6698SOL    HW222102   0.385   9.692   2.458
 6699SOL     OW22103   1.706  10.784   2.956
 6699SOL    HW122104   1.621  10.771   2.909
 6699SOL    HW222105   1.709  10.706   3.014
 6700SOL     OW22106   0.315   9.866   3.150
 6700SOL    HW122107   0.372   9.813   3.208
 6700SOL    HW222108   0.332   9.829   3.062
 6701SOL     OW22109   0.818  10.897   2.553
 6701SOL    HW122110   0.819  10.973   2.491
 6701SOL    HW222111   0.731  10.858   2.535
 6702SOL     OW22112   1.434   9.566   2.981
 6702SOL    HW122113   1.455   9.479   3.016
 6702SOL    HW222114   1.374   9.604   3.049
 6703SOL     OW22115   1.026   9.313   3.019
 6703SOL    HW122116   0.970   9.239   2.993
 6703SOL    HW222117   1.115   9.271   3.018
 6704SOL     OW22118   0.757  10.651   2.184
 6704SOL    HW122119   0.722  10.562   2.163
 6704SOL    HW222120   0.826  10.628   2.248
 6705SOL     OW22121   0.601  10.878   3.146
 6705SOL    HW122122   0.613  10.967   3.179
 6705SOL    HW222123   0.692  10.855   3.119
 6706SOL     OW22124   1.315   9.361   2.017
 6706SOL    HW122125   1.331   9.283   1.963
 6706SOL    HW222126   1.225   9.341   2.052
 6707SOL     OW22127   1.327   9.788   2.552
 6707SOL    HW122128   1.254   9.853   2.545
 6707SOL    HW222129   1.305   9.742   2.635
 6708SOL     OW22130   1.602   9.520   2.733
 6708SOL    HW122131   1.526   9.532   2.791
 6708SOL    HW222132   1.600   9.602   2.679
 6709SOL     OW22133   0.026  10.387   2.174
 6709SOL    HW122134   0.122  10.393   2.164
 6709SOL    HW222135   0.017  10.294   2.204
 6710SOL     OW22136   0.239   9.957   3.865
 6710SOL    HW122137   0.152   9.936   3.903
 6710SOL    HW222138   0.233   9.922   3.774
 6711SOL     OW22139   0.223   9.603   4.732
 6711SOL    HW122140   0.255   9.571   4.819
 6711SOL    HW222141   0.160   9.534   4.708
 6712SOL     OW22142  11.099   9.689   4.355
 6712SOL    HW122143  11.023   9.717   4.406
 6712SOL    HW222144  11.075   9.599   4.326
 6713SOL     OW22145   0.579  10.582   4.902
 6713SOL    HW122146   0.488  10.559   4.877
 6713SOL    HW222147   0.565  10.669   4.942
 6714SOL     OW22148   1.562  10.831   4.435
 6714SOL    HW122149   1.514  10.815   4.518
 6714SOL    HW222150   1.493  10.837   4.367
 6715SOL     OW22151   1.148   9.980   4.438
 6715SOL    HW122152   1.174  10.072   4.416
 6715SOL    HW222153   1.089   9.993   4.513
 6716SOL     OW22154   1.776   9.924   3.960
 6716SOL    HW122155   1.756   9.911   3.865
 6716SOL    HW222156   1.723   9.855   4.002
 6717SOL     OW22157   0.735  10.458   4.722
 6717SOL    HW122158   0.687  10.498   4.797
 6717SOL    HW222159   0.777  10.536   4.683
 6718SOL     OW22160   0.881  10.054   5.521
 6718SOL    HW122161   0.861  10.122   5.587
 6718SOL    HW222162   0.912  10.108   5.445
 6719SOL     OW22163   0.688  10.386   4.384
 6719SOL    HW122164   0.761  10.345   4.434
 6719SOL    HW222165   0.614  10.333   4.414
 6720SOL     OW22166   0.730  10.454   5.518
 6720SOL    HW122167   0.765  10.540   5.548
 6720SOL    HW222168   0.643  10.478   5.479
 6721SOL     OW22169   0.329  10.753   4.803
 6721SOL    HW122170   0.253  10.706   4.763
 6721SOL    HW222171   0.359  10.810   4.731
 6722SOL     OW22172   1.470  10.792   5.099
 6722SOL    HW122173   1.527  10.861   5.134
 6722SOL    HW222174   1.398  10.790   5.164
 6723SOL     OW22175   0.453   9.687   5.239
 6723SOL    HW122176   0.536   9.644   5.216
 6723SOL    HW222177   0.385   9.624   5.213
 6724SOL     OW22178   1.620   9.766   4.463
 6724SOL    HW122179   1.542   9.790   4.411
 6724SOL    HW222180   1.604   9.816   4.545
 6725SOL     OW22181   1.137  10.652   5.384
 6725SOL    HW122182   1.178  10.661   5.470
 6725SOL    HW222183   1.090  10.567   5.395
 6726SOL     OW22184   0.256  10.762   4.254
 6726SOL    HW122185   0.209  10.842   4.276
 6726SOL    HW222186   0.202  10.694   4.299
 6727SOL     OW22187   0.281  10.400   4.629
 6727SOL    HW122188   0.261  10.317   4.675
 6727SOL    HW222189   0.220  10.464   4.671
 6728SOL     OW22190   0.572  10.306   3.840
 6728SOL    HW122191   0.624  10.346   3.768
 6728SOL    HW222192   0.619  10.339   3.918
 6729SOL     OW22193   1.606   9.422   5.226
 6729SOL    HW122194   1.606   9.496   5.164
 6729SOL    HW222195   1.616   9.467   5.311
 6730SOL     OW22196   0.126   9.953   4.275
 6730SOL    HW122197   0.114   9.857   4.283
 6730SOL    HW222198   0.113   9.985   4.366
 6731SOL     OW22199   0.049  10.890   3.838
 6731SOL    HW122200   0.039  10.794   3.852
 6731SOL    HW222201   0.007  10.929   3.915
 6732SOL     OW22202   1.672  10.238   4.382
 6732SOL    HW122203   1.741  10.188   4.337
 6732SOL    HW222204   1.636  10.292   4.310
 6733SOL     OW22205   1.649  10.421   4.169
 6733SOL    HW122206   1.740  10.415   4.136
 6733SOL    HW222207   1.657  10.487   4.242
 6734SOL     OW22208   0.119  10.046   5.316
 6734SOL    HW122209   0.199  10.094   5.343
 6734SOL    HW222210   0.058  10.118   5.289
 6735SOL     OW22211   1.295  10.540   5.148
 6735SOL    HW122212   1.325  10.472   5.085
 6735SOL    HW222213   1.346  10.516   5.227
 6736SOL     OW22214   0.818   9.296   4.231
 6736SOL    HW122215   0.860   9.381   4.202
 6736SOL    HW222216   0.724   9.320   4.226
 6737SOL     OW22217   0.176  10.293   4.973
 6737SOL    HW122218   0.257  10.239   4.967
 6737SOL    HW222219   0.108  10.233   4.939
 6738SOL     OW22220   1.539  10.278   3.920
 6738SOL    HW122221   1.457  10.235   3.954
 6738SOL    HW222222   1.583  10.302   4.003
 6739SOL     OW22223   1.205  11.099   5.339
 6739SOL    HW122224   1.201   0.064   5.268
 6739SOL    HW222225   1.223  11.017   5.289
 6740SOL     OW22226   0.320   9.546   5.494
 6740SOL    HW122227   0.378   9.618   5.522
 6740SOL    HW222228   0.241   9.561   5.549
 6741SOL     OW22229   1.472  10.738   4.681
 6741SOL    HW122230   1.408  10.748   4.754
 6741SOL    HW222231   1.446  10.651   4.645
 6742SOL     OW22232   0.570  10.035   3.978
 6742SOL    HW122233   0.587  10.125   3.947
 6742SOL    HW222234   0.500  10.048   4.045
 6743SOL     OW22235   1.277   9.635   4.638
 6743SOL    HW122236   1.187   9.602   4.660
 6743SOL    HW222237   1.331   9.598   4.710
 6744SOL     OW22238   1.567  10.955   4.029
 6744SOL    HW122239   1.627  11.026   4.054
 6744SOL    HW222240   1.562  10.965   3.932
 6745SOL     OW22241   0.781   9.939   5.198
 6745SOL    HW122242   0.766   9.890   5.281
 6745SOL    HW222243   0.749   9.875   5.131
 6746SOL     OW22244   1.396   9.786   5.406
 6746SOL    HW122245   1.403   9.834   5.491
 6746SOL    HW222246   1.458   9.712   5.419
 6747SOL     OW22247   0.966  10.208   5.313
 6747SOL    HW122248   1.006  10.128   5.273
 6747SOL    HW222249   0.910  10.241   5.240
 6748SOL     OW22250   0.974   9.702   4.956
 6748SOL    HW122251   0.882   9.722   4.978
 6748SOL    HW222252   0.968   9.663   4.868
 6749SOL     OW22253   1.053   9.981   4.132
 6749SOL    HW122254   1.071   9.997   4.226
 6749SOL    HW222255   0.969   9.931   4.137
 6750SOL     OW22256   0.093  10.109   4.499
 6750SOL    HW122257   0.175  10.098   4.551
 6750SOL    HW222258   0.058  10.191   4.536
 6751SOL     OW22259   0.102   0.078   5.314
 6751SOL    HW122260   0.115   0.037   5.402
 6751SOL    HW222261   0.008   0.062   5.296
 6752SOL     OW22262   0.874   9.666   3.897
 6752SOL    HW122263   0.934   9.729   3.854
 6752SOL    HW222264   0.933   9.609   3.947
 6753SOL     OW22265   1.711   9.875   5.561
 6753SOL    HW122266   1.683   9.958   5.516
 6753SOL    HW222267   1.740   9.823   5.485
 6754SOL     OW22268   1.361  10.452   4.281
 6754SOL    HW122269   1.443  10.453   4.230
 6754SOL    HW222270   1.308  10.517   4.232
 6755SOL     OW22271   0.576   9.506   4.618
 6755SOL    HW122272   0.585   9.522   4.714
 6755SOL    HW222273   0.565   9.596   4.584
 6756SOL     OW22274   0.983  10.750   4.195
 6756SOL    HW122275   0.927  10.818   4.154
 6756SOL    HW222276   1.008  10.790   4.279
 6757SOL     OW22277   0.356   0.022   4.593
 6757SOL    HW122278   0.402  11.040   4.615
 6757SOL    HW222279   0.431   0.085   4.588
 6758SOL     OW22280   1.795  10.378   4.620
 6758SOL    HW122281   1.747  10.360   4.538
 6758SOL    HW222282   1.726  10.365   4.688
 6759SOL     OW22283   1.218  10.855   5.211
 6759SOL    HW122284   1.202  10.778   5.269
 6759SOL    HW222285   1.166  10.828   5.134
 6760SOL     OW22286   0.326  10.275   3.972
 6760SOL    HW122287   0.403  10.293   3.916
 6760SOL    HW222288   0.289  10.194   3.933
 6761SOL     OW22289   1.472  10.062   4.446
 6761SOL    HW122290   1.470  10.018   4.533
 6761SOL    HW222291   1.551  10.118   4.452
 6762SOL     OW22292   0.485  10.537   5.439
 6762SOL    HW122293   0.452  10.549   5.347
 6762SOL    HW222294   0.407  10.561   5.490
 6763SOL     OW22295   1.080  11.075   3.967
 6763SOL    HW122296   0.997  11.036   3.996
 6763SOL    HW222297   1.103  11.026   3.886
 6764SOL     OW22298   0.180   9.580   5.216
 6764SOL    HW122299   0.107   9.642   5.234
 6764SOL    HW222300   0.201   9.550   5.305
 6765SOL     OW22301   1.619  10.696   3.809
 6765SOL    HW122302   1.574  10.781   3.801
 6765SOL    HW222303   1.550  10.632   3.783
 6766SOL     OW22304   1.390   9.408   4.172
 6766SOL    HW122305   1.381   9.376   4.081
 6766SOL    HW222306   1.480   9.443   4.174
 6767SOL     OW22307   0.394  10.024   4.193
 6767SOL    HW122308   0.417   9.929   4.204
 6767SOL    HW222309   0.300  10.019   4.215
 6768SOL     OW22310   1.548   9.570   5.459
 6768SOL    HW122311   1.542   9.580   5.557
 6768SOL    HW222312   1.496   9.489   5.447
 6769SOL     OW22313   0.611   9.437   3.825
 6769SOL    HW122314   0.699   9.399   3.839
 6769SOL    HW222315   0.580   9.391   3.745
 6770SOL     OW22316   0.758   9.559   5.468
 6770SOL    HW122317   0.843   9.512   5.483
 6770SOL    HW222318   0.709   9.545   5.550
 6771SOL     OW22319   0.891  10.831   4.898
 6771SOL    HW122320   0.878  10.786   4.813
 6771SOL    HW222321   0.952  10.773   4.946
 6772SOL     OW22322   1.324   9.900   5.168
 6772SOL    HW122323   1.366   9.870   5.251
 6772SOL    HW222324   1.383   9.972   5.140
 6773SOL     OW22325   0.835  10.708   4.647
 6773SOL    HW122326   0.927  10.677   4.634
 6773SOL    HW222327   0.828  10.775   4.577
 6774SOL     OW22328   0.939   9.847   4.619
 6774SOL    HW122329   0.911   9.834   4.525
 6774SOL    HW222330   0.965   9.756   4.642
 6775SOL     OW22331   0.555   9.361   4.229
 6775SOL    HW122332   0.469   9.361   4.275
 6775SOL    HW222333   0.546   9.440   4.172
 6776SOL     OW22334   1.440  10.496   3.768
 6776SOL    HW122335   1.471  10.421   3.822
 6776SOL    HW222336   1.348  10.506   3.795
 6777SOL     OW22337   0.295   9.342   3.918
 6777SOL    HW122338   0.355   9.415   3.898
 6777SOL    HW222339   0.356   9.279   3.961
 6778SOL     OW22340   0.932   9.536   4.161
 6778SOL    HW122341   0.879   9.611   4.194
 6778SOL    HW222342   1.019   9.562   4.196
 6779SOL     OW22343   1.073   9.997   5.196
 6779SOL    HW122344   1.022   9.915   5.192
 6779SOL    HW222345   1.165   9.965   5.193
 6780SOL     OW22346   1.233  10.876   4.534
 6780SOL    HW122347   1.184  10.952   4.500
 6780SOL    HW222348   1.292  10.918   4.597
 6781SOL     OW22349   0.433  10.500   4.444
 6781SOL    HW122350   0.379  10.468   4.520
 6781SOL    HW222351   0.394  10.449   4.370
 6782SOL     OW22352   1.061   9.840   3.746
 6782SOL    HW122353   1.007   9.921   3.738
 6782SOL    HW222354   1.123   9.861   3.818
 6783SOL     OW22355   0.070   9.882   5.109
 6783SOL    HW122356   0.161   9.876   5.078
 6783SOL    HW222357   0.078   9.947   5.182
 6784SOL     OW22358   0.580   9.530   4.889
 6784SOL    HW122359   0.620   9.453   4.931
 6784SOL    HW222360   0.487   9.525   4.919
 6785SOL     OW22361   1.035   9.366   4.490
 6785SOL    HW122362   0.977   9.369   4.413
 6785SOL    HW222363   1.000   9.292   4.541
 6786SOL     OW22364   1.421  10.492   4.597
 6786SOL    HW122365   1.355  10.421   4.597
 6786SOL    HW222366   1.458  10.483   4.508
 6787SOL     OW22367   1.496   9.881   4.687
 6787SOL    HW122368   1.429   9.814   4.707
 6787SOL    HW222369   1.549   9.884   4.768
 6788SOL     OW22370   1.831  10.135   4.128
 6788SOL    HW122371   1.889  10.078   4.183
 6788SOL    HW222372   1.818  10.078   4.050
 6789SOL     OW22373   0.480  10.740   3.919
 6789SOL    HW122374   0.403  10.695   3.960
 6789SOL    HW222375   0.489  10.689   3.838
 6790SOL     OW22376   1.670  10.577   4.392
 6790SOL    HW122377   1.767  10.590   4.392
 6790SOL    HW222378   1.636  10.668   4.406
 6791SOL     OW22379   1.408   9.900   3.791
 6791SOL    HW122380   1.349   9.878   3.866
 6791SOL    HW222381   1.479   9.836   3.805
 6792SOL     OW22382   0.513   9.548   4.044
 6792SOL    HW122383   0.560   9.511   3.966
 6792SOL    HW222384   0.491   9.636   4.009
 6793SOL     OW22385   1.741  10.523   5.324
 6793SOL    HW122386   1.832  10.493   5.305
 6793SOL    HW222387   1.756  10.618   5.340
 6794SOL     OW22388   1.064  10.671   5.071
 6794SOL    HW122389   0.984  10.637   5.115
 6794SOL    HW222390   1.136  10.618   5.113
 6795SOL     OW22391   1.598  10.974   5.376
 6795SOL    HW122392   1.604  11.043   5.307
 6795SOL    HW222393   1.684  10.928   5.368
 6796SOL     OW22394   1.113  10.507   4.845
 6796SOL    HW122395   1.066  10.560   4.910
 6796SOL    HW222396   1.096  10.554   4.762
 6797SOL     OW22397   1.585  10.390   4.801
 6797SOL    HW122398   1.600  10.454   4.874
 6797SOL    HW222399   1.532  10.443   4.739
 6798SOL     OW22400   0.930   9.388   5.134
 6798SOL    HW122401   0.954   9.378   5.040
 6798SOL    HW222402   1.005   9.441   5.168
 6799SOL     OW22403   1.002  10.430   5.467
 6799SOL    HW122404   0.907  10.444   5.487
 6799SOL    HW222405   0.999  10.353   5.407
 6800SOL     OW22406   0.704  10.385   4.067
 6800SOL    HW122407   0.674  10.340   4.147
 6800SOL    HW222408   0.789  10.338   4.050
 6801SOL     OW22409   0.389  10.130   4.983
 6801SOL    HW122410   0.462  10.131   5.047
 6801SOL    HW222411   0.364  10.035   4.984
 6802SOL     OW22412   1.284   9.693   5.000
 6802SOL    HW122413   1.297   9.769   5.061
 6802SOL    HW222414   1.193   9.706   4.970
 6803SOL     OW22415   0.035  10.875   5.114
 6803SOL    HW122416   0.001  10.933   5.044
 6803SOL    HW222417   0.132  10.880   5.103
 6804SOL     OW22418   0.351  10.394   4.214
 6804SOL    HW122419   0.349  10.463   4.146
 6804SOL    HW222420   0.342  10.314   4.160
 6805SOL     OW22421   0.543   9.855   4.570
 6805SOL    HW122422   0.577   9.910   4.496
 6805SOL    HW222423   0.605   9.876   4.641
 6806SOL     OW22424   1.244  10.660   4.114
 6806SOL    HW122425   1.298  10.731   4.155
 6806SOL    HW222426   1.154  10.686   4.140
 6807SOL     OW22427   1.295  10.765   4.893
 6807SOL    HW122428   1.358  10.777   4.966
 6807SOL    HW222429   1.252  10.681   4.915
 6808SOL     OW22430   1.581   9.922   4.196
 6808SOL    HW122431   1.528   9.967   4.264
 6808SOL    HW222432   1.613   9.996   4.144
 6809SOL     OW22433   0.311  10.842   5.051
 6809SOL    HW122434   0.309  10.801   4.962
 6809SOL    HW222435   0.405  10.862   5.056
 6810SOL     OW22436   0.423  10.046   5.334
 6810SOL    HW122437   0.487  10.100   5.285
 6810SOL    HW222438   0.458   9.957   5.318
 6811SOL     OW22439   1.629  10.078   5.410
 6811SOL    HW122440   1.536  10.103   5.399
 6811SOL    HW222441   1.670  10.123   5.333
 6812SOL     OW22442   0.996   9.430   5.477
 6812SOL    HW122443   1.048   9.508   5.455
 6812SOL    HW222444   1.050   9.360   5.438
 6813SOL     OW22445   0.484   9.326   5.487
 6813SOL    HW122446   0.448   9.272   5.414
 6813SOL    HW222447   0.425   9.404   5.483
 6814SOL     OW22448   0.594  10.205   4.766
 6814SOL    HW122449   0.629  10.296   4.765
 6814SOL    HW222450   0.535  10.205   4.843
 6815SOL     OW22451   1.343  10.181   4.748
 6815SOL    HW122452   1.263  10.138   4.714
 6815SOL    HW222453   1.404  10.107   4.755
 6816SOL     OW22454   1.229   9.826   3.985
 6816SOL    HW122455   1.240   9.758   4.054
 6816SOL    HW222456   1.161   9.882   4.027
 6817SOL     OW22457   0.303   9.503   4.965
 6817SOL    HW122458   0.242   9.532   5.036
 6817SOL    HW222459   0.287   9.406   4.967
 6818SOL     OW22460   0.066  10.620   5.004
 6818SOL    HW122461   0.122  10.571   5.066
 6818SOL    HW222462   0.047  10.703   5.050
 6819SOL     OW22463   0.731   9.946   4.781
 6819SOL    HW122464   0.805   9.922   4.722
 6819SOL    HW222465   0.706  10.036   4.754
 6820SOL     OW22466   1.762  10.260   5.570
 6820SOL    HW122467   1.715  10.188   5.524
 6820SOL    HW222468   1.701  10.280   5.643
 6821SOL     OW22469   0.289   9.356   4.332
 6821SOL    HW122470   0.271   9.449   4.355
 6821SOL    HW222471   0.316   9.320   4.419
 6822SOL     OW22472   1.590   9.677   4.090
 6822SOL    HW122473   1.633   9.617   4.153
 6822SOL    HW222474   1.585   9.761   4.140
 6823SOL     OW22475   1.059  10.074   4.701
 6823SOL    HW122476   1.035  10.088   4.795
 6823SOL    HW222477   1.026   9.984   4.684
 6824SOL     OW22478   0.982  10.863   5.435
 6824SOL    HW122479   0.995  10.922   5.360
 6824SOL    HW222480   1.013  10.777   5.402
 6825SOL     OW22481   1.835  10.830   5.331
 6825SOL    HW122482   1.865  10.843   5.239
 6825SOL    HW222483   1.920  10.835   5.379
 6826SOL     OW22484   0.336  10.180   5.551
 6826SOL    HW122485   0.421  10.214   5.582
 6826SOL    HW222486   0.366  10.113   5.486
 6827SOL     OW22487   1.513   9.576   3.854
 6827SOL    HW122488   1.443   9.515   3.883
 6827SOL    HW222489   1.548   9.610   3.939
 6828SOL     OW22490   1.294  10.146   3.750
 6828SOL    HW122491   1.342  10.063   3.766
 6828SOL    HW222492   1.323  10.167   3.659
 6829SOL     OW22493   1.080  10.634   4.593
 6829SOL    HW122494   1.081  10.562   4.526
 6829SOL    HW222495   1.150  10.694   4.562
 6830SOL     OW22496   0.301  10.125   4.681
 6830SOL    HW122497   0.393  10.148   4.660
 6830SOL    HW222498   0.311  10.038   4.722
 6831SOL     OW22499   0.332   9.853   4.726
 6831SOL    HW122500   0.290   9.766   4.711
 6831SOL    HW222501   0.407   9.850   4.661
 6832SOL     OW22502   1.155   9.679   5.412
 6832SOL    HW122503   1.114   9.735   5.482
 6832SOL    HW222504   1.245   9.717   5.409
 6833SOL     OW22505   1.165   9.505   5.210
 6833SOL    HW122506   1.163   9.571   5.283
 6833SOL    HW222507   1.212   9.555   5.142
 6834SOL     OW22508   0.003  10.624   3.906
 6834SOL    HW122509  11.011  10.648   3.903
 6834SOL    HW222510  -0.000  10.539   3.954
 6835SOL     OW22511   0.107   0.024   4.691
 6835SOL    HW122512   0.076  11.048   4.639
 6835SOL    HW222513   0.198   0.031   4.655
 6836SOL     OW22514   0.517  10.912   4.643
 6836SOL    HW122515   0.591  10.973   4.649
 6836SOL    HW222516   0.558  10.827   4.660
 6837SOL     OW22517   0.965  10.107   4.962
 6837SOL    HW122518   1.011  10.070   5.039
 6837SOL    HW222519   0.878  10.066   4.968
 6838SOL     OW22520  11.087   9.906   4.819
 6838SOL    HW122521   0.061   9.870   4.770
 6838SOL    HW222522   0.009   9.882   4.911
 6839SOL     OW22523   0.217   9.843   5.470
 6839SOL    HW122524   0.271   9.797   5.404
 6839SOL    HW222525   0.173   9.911   5.415
 6840SOL     OW22526   1.379  10.205   5.371
 6840SOL    HW122527   1.416  10.295   5.378
 6840SOL    HW222528   1.377  10.191   5.275
 6841SOL     OW22529   0.806   9.912   3.993
 6841SOL    HW122530   0.805   9.815   3.991
 6841SOL    HW222531   0.713   9.937   3.994
 6842SOL     OW22532   1.656   9.924   4.920
 6842SOL    HW122533   1.636   9.862   4.991
 6842SOL    HW222534   1.740   9.889   4.884
 6843SOL     OW22535   0.277  10.852   5.460
 6843SOL    HW122536   0.219  10.913   5.506
 6843SOL    HW222537   0.247  10.765   5.494
 6844SOL     OW22538   0.695   9.780   5.000
 6844SOL    HW122539   0.650   9.700   4.967
 6844SOL    HW222540   0.692   9.839   4.922
 6845SOL     OW22541   0.457   9.789   3.925
 6845SOL    HW122542   0.520   9.863   3.927
 6845SOL    HW222543   0.372   9.838   3.920
 6846SOL     OW22544   0.172  10.439   5.198
 6846SOL    HW122545   0.172  10.379   5.274
 6846SOL    HW222546   0.178  10.378   5.121
 6847SOL     OW22547   1.322  10.344   4.964
 6847SOL    HW122548   1.346  10.291   4.885
 6847SOL    HW222549   1.242  10.388   4.931
 6848SOL     OW22550   1.309  10.183   4.023
 6848SOL    HW122551   1.232  10.140   4.063
 6848SOL    HW222552   1.294  10.174   3.928
 6849SOL     OW22553   1.784  11.036   4.881
 6849SOL    HW122554   1.827  11.050   4.795
 6849SOL    HW222555   1.746  10.946   4.870
 6850SOL     OW22556   1.248  11.031   4.819
 6850SOL    HW122557   1.337  11.054   4.785
 6850SOL    HW222558   1.261  10.937   4.843
 6851SOL     OW22559   0.120  10.591   4.731
 6851SOL    HW122560   0.092  10.606   4.823
 6851SOL    HW222561   0.051  10.531   4.699
 6852SOL     OW22562   0.662  10.961   5.462
 6852SOL    HW122563   0.604  11.040   5.460
 6852SOL    HW222564   0.730  10.983   5.398
 6853SOL     OW22565   1.689   9.463   4.229
 6853SOL    HW122566   1.758   9.443   4.165
 6853SOL    HW222567   1.676   9.377   4.274
 6854SOL     OW22568   1.387  10.873   4.211
 6854SOL    HW122569   1.460  10.881   4.146
 6854SOL    HW222570   1.356  10.965   4.214
 6855SOL     OW22571   0.138  11.101   5.574
 6855SOL    HW122572   0.101  11.017   5.609
 6855SOL    HW222573   0.160   0.045   5.655
 6856SOL     OW22574   1.258  10.221   4.386
 6856SOL    HW122575   1.335  10.164   4.406
 6856SOL    HW222576   1.300  10.298   4.345
 6857SOL     OW22577   0.810  10.589   5.155
 6857SOL    HW122578   0.792  10.640   5.237
 6857SOL    HW222579   0.726  10.599   5.109
 6858SOL     OW22580   0.662  10.935   3.871
 6858SOL    HW122581   0.668  10.931   3.774
 6858SOL    HW222582   0.596  10.866   3.892
 6859SOL     OW22583   1.840   9.474   4.704
 6859SOL    HW122584   1.863   9.388   4.665
 6859SOL    HW222585   1.754   9.496   4.662
 6860SOL     OW22586   0.266   9.605   4.430
 6860SOL    HW122587   0.176   9.636   4.411
 6860SOL    HW222588   0.277   9.629   4.524
 6861SOL     OW22589   1.210  10.937   3.758
 6861SOL    HW122590   1.203  10.843   3.780
 6861SOL    HW222591   1.153  10.947   3.679
 6862SOL     OW22592   0.817  10.321   5.090
 6862SOL    HW122593   0.868  10.299   5.010
 6862SOL    HW222594   0.828  10.417   5.100
 6863SOL     OW22595   0.921  10.244   4.019
 6863SOL    HW122596   0.993  10.261   3.956
 6863SOL    HW222597   0.924  10.147   4.030
 6864SOL     OW22598   1.515  10.967   3.766
 6864SOL    HW122599   1.423  10.941   3.756
 6864SOL    HW222600   1.545  10.968   3.673
 6865SOL     OW22601   0.393  10.593   5.199
 6865SOL    HW122602   0.357  10.681   5.179
 6865SOL    HW222603   0.316  10.535   5.183
 6866SOL     OW22604   1.600  10.582   4.998
 6866SOL    HW122605   1.644  10.555   5.079
 6866SOL    HW222606   1.543  10.654   5.030
 6867SOL     OW22607   1.041  10.429   4.424
 6867SOL    HW122608   0.987  10.366   4.475
 6867SOL    HW222609   1.102  10.369   4.378
 6868SOL     OW22610   1.035   9.537   4.710
 6868SOL    HW122611   1.026   9.494   4.622
 6868SOL    HW222612   1.034   9.460   4.769
 6869SOL     OW22613   0.601  10.813   4.247
 6869SOL    HW122614   0.634  10.786   4.158
 6869SOL    HW222615   0.542  10.886   4.225
 6870SOL     OW22616   1.711   9.690   5.102
 6870SOL    HW122617   1.782   9.758   5.096
 6870SOL    HW222618   1.748   9.618   5.046
 6871SOL     OW22619   0.262  10.620   4.022
 6871SOL    HW122620   0.173  10.646   3.992
 6871SOL    HW222621   0.271  10.675   4.103
 6872SOL     OW22622   0.147  10.350   5.468
 6872SOL    HW122623   0.067  10.314   5.508
 6872SOL    HW222624   0.217  10.291   5.505
 6873SOL     OW22625   0.681   9.491   5.212
 6873SOL    HW122626   0.771   9.460   5.188
 6873SOL    HW222627   0.697   9.528   5.301
 6874SOL     OW22628   0.084   9.629   3.762
 6874SOL    HW122629  11.098   9.629   3.720
 6874SOL    HW222630   0.121   9.712   3.727
 6875SOL     OW22631   1.459  10.159   5.110
 6875SOL    HW122632   1.414  10.229   5.059
 6875SOL    HW222633   1.552  10.183   5.098
 6876SOL     OW22634   0.067   9.468   4.033
 6876SOL    HW122635   0.061   9.545   3.974
 6876SOL    HW222636   0.151   9.427   4.006
 6877SOL     OW22637   1.194  10.623   3.850
 6877SOL    HW122638   1.112  10.575   3.866
 6877SOL    HW222639   1.226  10.639   3.941
 6878SOL     OW22640   0.613  10.140   5.145
 6878SOL    HW122641   0.674  10.213   5.126
 6878SOL    HW222642   0.677  10.070   5.168
 6879SOL     OW22643   1.504  11.064   4.689
 6879SOL    HW122644   1.531   0.021   4.617
 6879SOL    HW222645   1.588  11.030   4.721
 6880SOL     OW22646   0.718   9.841   5.437
 6880SOL    HW122647   0.767   9.909   5.488
 6880SOL    HW222648   0.743   9.757   5.478
 6881SOL     OW22649   1.480  10.459   5.369
 6881SOL    HW122650   1.466  10.482   5.463
 6881SOL    HW222651   1.575  10.478   5.359
 6882SOL     OW22652   1.700  10.185   4.952
 6882SOL    HW122653   1.683  10.092   4.928
 6882SOL    HW222654   1.649  10.236   4.886
 6883SOL     OW22655   1.235   9.652   4.196
 6883SOL    HW122656   1.287   9.570   4.199
 6883SOL    HW222657   1.264   9.699   4.276
 6884SOL     OW22658   0.608  10.057   4.383
 6884SOL    HW122659   0.687  10.043   4.329
 6884SOL    HW222660   0.535  10.048   4.319
 6885SOL     OW22661   1.771   9.682   5.361
 6885SOL    HW122662   1.741   9.690   5.268
 6885SOL    HW222663   1.694   9.636   5.401
 6886SOL     OW22664   1.737  10.231   5.218
 6886SOL    HW122665   1.748  10.327   5.226
 6886SOL    HW222666   1.755  10.215   5.123
 6887SOL     OW22667   0.855  10.695   3.770
 6887SOL    HW122668   0.813  10.744   3.842
 6887SOL    HW222669   0.902  10.763   3.720
 6888SOL     OW22670   0.877  10.265   4.560
 6888SOL    HW122671   0.925  10.191   4.602
 6888SOL    HW222672   0.832  10.306   4.636
 6889SOL     OW22673   1.086  10.302   3.811
 6889SOL    HW122674   1.065  10.358   3.734
 6889SOL    HW222675   1.157  10.245   3.777
 6890SOL     OW22676   1.841  10.933   4.599
 6890SOL    HW122677   1.801  10.904   4.517
 6890SOL    HW222678   1.861  10.850   4.643
 6891SOL     OW22679   0.191  10.615   5.546
 6891SOL    HW122680   0.177  10.521   5.522
 6891SOL    HW222681   0.184  10.613   5.643
 6892SOL     OW22682   0.111  10.560   4.359
 6892SOL    HW122683   0.086  10.519   4.443
 6892SOL    HW222684   0.143  10.484   4.308
 6893SOL     OW22685   0.673  10.717   5.348
 6893SOL    HW122686   0.597  10.659   5.365
 6893SOL    HW222687   0.650  10.798   5.397
 6894SOL     OW22688   1.805   9.484   4.965
 6894SOL    HW122689   1.827   9.391   4.975
 6894SOL    HW222690   1.817   9.495   4.868
 6895SOL     OW22691   0.406   9.762   4.243
 6895SOL    HW122692   0.477   9.712   4.200
 6895SOL    HW222693   0.374   9.701   4.310
 6896SOL     OW22694   1.682  10.794   4.840
 6896SOL    HW122695   1.614  10.777   4.773
 6896SOL    HW222696   1.679  10.713   4.893
 6897SOL     OW22697   0.329   9.857   5.000
 6897SOL    HW122698   0.391   9.798   5.044
 6897SOL    HW222699   0.339   9.834   4.906
 6898SOL     OW22700   0.802  10.902   4.440
 6898SOL    HW122701   0.838  10.970   4.380
 6898SOL    HW222702   0.716  10.887   4.397
 6899SOL     OW22703   1.432   9.547   4.830
 6899SOL    HW122704   1.462   9.464   4.871
 6899SOL    HW222705   1.383   9.592   4.903
 6900SOL     OW22706   1.005   9.310   4.875
 6900SOL    HW122707   0.955   9.239   4.832
 6900SOL    HW222708   1.096   9.272   4.875
 6901SOL     OW22709   0.762  10.649   4.055
 6901SOL    HW122710   0.736  10.557   4.035
 6901SOL    HW222711   0.849  10.636   4.093
 6902SOL     OW22712   0.596  10.870   5.009
 6902SOL    HW122713   0.609  10.963   5.030
 6902SOL    HW222714   0.687  10.841   4.990
 6903SOL     OW22715   1.330   9.352   3.903
 6903SOL    HW122716   1.343   9.290   3.830
 6903SOL    HW222717   1.238   9.329   3.930
 6904SOL     OW22718   1.329   9.784   4.419
 6904SOL    HW122719   1.263   9.856   4.413
 6904SOL    HW222720   1.299   9.736   4.499
 6905SOL     OW22721   1.597   9.519   4.596
 6905SOL    HW122722   1.525   9.534   4.659
 6905SOL    HW222723   1.593   9.598   4.538
 6906SOL     OW22724   0.027  10.391   4.049
 6906SOL    HW122725   0.123  10.402   4.044
 6906SOL    HW222726   0.020  10.295   4.060
 6907SOL     OW22727   0.247   9.953   5.732
 6907SOL    HW122728   0.158   9.936   5.765
 6907SOL    HW222729   0.242   9.922   5.640
 6908SOL     OW22730   0.226   9.603   6.597
 6908SOL    HW122731   0.256   9.574   6.686
 6908SOL    HW222732   0.166   9.531   6.573
 6909SOL     OW22733   0.007   9.688   6.219
 6909SOL    HW122734  11.033   9.710   6.275
 6909SOL    HW222735  11.085   9.598   6.187
 6910SOL     OW22736   0.582  10.578   6.774
 6910SOL    HW122737   0.493  10.562   6.741
 6910SOL    HW222738   0.574  10.670   6.805
 6911SOL     OW22739   1.557  10.831   6.301
 6911SOL    HW122740   1.496  10.834   6.377
 6911SOL    HW222741   1.498  10.827   6.223
 6912SOL     OW22742   1.115   9.993   6.295
 6912SOL    HW122743   1.173  10.068   6.274
 6912SOL    HW222744   1.088  10.016   6.385
 6913SOL     OW22745   1.774   9.908   5.821
 6913SOL    HW122746   1.750   9.893   5.728
 6913SOL    HW222747   1.719   9.843   5.866
 6914SOL     OW22748   0.748  10.455   6.593
 6914SOL    HW122749   0.693  10.489   6.666
 6914SOL    HW222750   0.782  10.540   6.557
 6915SOL     OW22751   0.860  10.106   7.390
 6915SOL    HW122752   0.857  10.171   7.461
 6915SOL    HW222753   0.892  10.158   7.313
 6916SOL     OW22754   0.685  10.329   6.225
 6916SOL    HW122755   0.743  10.324   6.302
 6916SOL    HW222756   0.612  10.385   6.258
 6917SOL     OW22757   0.724  10.450   7.385
 6917SOL    HW122758   0.759  10.535   7.418
 6917SOL    HW222759   0.636  10.475   7.352
 6918SOL     OW22760   0.340  10.746   6.663
 6918SOL    HW122761   0.265  10.716   6.610
 6918SOL    HW222762   0.389  10.802   6.602
 6919SOL     OW22763   1.469  10.792   6.965
 6919SOL    HW122764   1.525  10.862   7.001
 6919SOL    HW222765   1.397  10.789   7.030
 6920SOL     OW22766   0.456   9.685   7.095
 6920SOL    HW122767   0.542   9.640   7.091
 6920SOL    HW222768   0.395   9.619   7.061
 6921SOL     OW22769   1.620   9.773   6.335
 6921SOL    HW122770   1.543   9.782   6.276
 6921SOL    HW222771   1.628   9.866   6.360
 6922SOL     OW22772   1.140  10.652   7.253
 6922SOL    HW122773   1.187  10.654   7.337
 6922SOL    HW222774   1.093  10.566   7.259
 6923SOL     OW22775   0.221  10.756   6.103
 6923SOL    HW122776   0.195  10.834   6.152
 6923SOL    HW222777   0.170  10.686   6.150
 6924SOL     OW22778   0.286  10.398   6.487
 6924SOL    HW122779   0.256  10.322   6.539
 6924SOL    HW222780   0.231  10.470   6.524
 6925SOL     OW22781   0.569  10.309   5.691
 6925SOL    HW122782   0.627  10.351   5.624
 6925SOL    HW222783   0.613  10.338   5.774
 6926SOL     OW22784   1.600   9.417   7.083
 6926SOL    HW122785   1.604   9.496   7.026
 6926SOL    HW222786   1.620   9.455   7.170
 6927SOL     OW22787   0.128   9.948   6.140
 6927SOL    HW122788   0.106   9.853   6.142
 6927SOL    HW222789   0.106   9.978   6.230
 6928SOL     OW22790   0.064  10.882   5.699
 6928SOL    HW122791   0.049  10.787   5.713
 6928SOL    HW222792   0.005  10.923   5.763
 6929SOL     OW22793   1.758  10.275   6.206
 6929SOL    HW122794   1.780  10.217   6.131
 6929SOL    HW222795   1.662  10.282   6.198
 6930SOL     OW22796   1.636  10.454   6.015
 6930SOL    HW122797   1.727  10.425   5.999
 6930SOL    HW222798   1.647  10.506   6.096
 6931SOL     OW22799   0.120  10.040   7.177
 6931SOL    HW122800   0.202  10.084   7.206
 6931SOL    HW222801   0.062  10.114   7.154
 6932SOL     OW22802   0.604  10.701   6.346
 6932SOL    HW122803   0.561  10.614   6.357
 6932SOL    HW222804   0.593  10.714   6.251
 6933SOL     OW22805   1.283  10.535   7.010
 6933SOL    HW122806   1.319  10.464   6.954
 6933SOL    HW222807   1.339  10.524   7.090
 6934SOL     OW22808   0.819   9.303   6.087
 6934SOL    HW122809   0.851   9.395   6.081
 6934SOL    HW222810   0.723   9.317   6.098
 6935SOL     OW22811   0.182  10.289   6.832
 6935SOL    HW122812   0.260  10.232   6.817
 6935SOL    HW222813   0.109  10.235   6.799
 6936SOL     OW22814   1.555  10.287   5.793
 6936SOL    HW122815   1.479  10.240   5.832
 6936SOL    HW222816   1.585  10.340   5.869
 6937SOL     OW22817   1.213   0.006   7.210
 6937SOL    HW122818   1.211   0.076   7.143
 6937SOL    HW222819   1.231  11.028   7.157
 6938SOL     OW22820   0.327   9.554   7.374
 6938SOL    HW122821   0.398   9.608   7.413
 6938SOL    HW222822   0.250   9.581   7.427
 6939SOL     OW22823   1.465  10.736   6.555
 6939SOL    HW122824   1.398  10.742   6.625
 6939SOL    HW222825   1.443  10.651   6.512
 6940SOL     OW22826   0.593  10.017   5.847
 6940SOL    HW122827   0.606  10.105   5.809
 6940SOL    HW222828   0.520  10.032   5.909
 6941SOL     OW22829   1.277   9.648   6.504
 6941SOL    HW122830   1.188   9.616   6.526
 6941SOL    HW222831   1.331   9.611   6.577
 6942SOL     OW22832   1.565  10.952   5.891
 6942SOL    HW122833   1.622  11.024   5.922
 6942SOL    HW222834   1.564  10.966   5.794
 6943SOL     OW22835   0.795   9.952   7.040
 6943SOL    HW122836   0.774   9.920   7.131
 6943SOL    HW222837   0.754   9.881   6.985
 6944SOL     OW22838   1.389   9.794   7.255
 6944SOL    HW122839   1.399   9.856   7.329
 6944SOL    HW222840   1.455   9.726   7.277
 6945SOL     OW22841   0.959  10.214   7.163
 6945SOL    HW122842   1.002  10.130   7.137
 6945SOL    HW222843   0.913  10.239   7.081
 6946SOL     OW22844   0.975   9.712   6.789
 6946SOL    HW122845   0.942   9.682   6.875
 6946SOL    HW222846   0.982   9.630   6.738
 6947SOL     OW22847   1.055   9.981   6.000
 6947SOL    HW122848   1.074  10.006   6.092
 6947SOL    HW222849   0.969   9.937   6.007
 6948SOL     OW22850   0.088  10.116   6.357
 6948SOL    HW122851   0.167  10.098   6.412
 6948SOL    HW222852   0.051  10.192   6.404
 6949SOL     OW22853   0.100   0.068   7.177
 6949SOL    HW122854   0.112   0.038   7.270
 6949SOL    HW222855   0.005   0.060   7.163
 6950SOL     OW22856   0.892   9.702   5.793
 6950SOL    HW122857   0.935   9.753   5.722
 6950SOL    HW222858   0.916   9.612   5.770
 6951SOL     OW22859   1.711   9.879   7.431
 6951SOL    HW122860   1.675   9.959   7.388
 6951SOL    HW222861   1.745   9.831   7.354
 6952SOL     OW22862   1.367  10.457   6.148
 6952SOL    HW122863   1.444  10.451   6.091
 6952SOL    HW222864   1.312  10.520   6.098
 6953SOL     OW22865   0.585   9.510   6.467
 6953SOL    HW122866   0.581   9.523   6.564
 6953SOL    HW222867   0.542   9.590   6.433
 6954SOL     OW22868   0.993  10.755   6.066
 6954SOL    HW122869   0.927  10.809   6.021
 6954SOL    HW222870   0.986  10.786   6.158
 6955SOL     OW22871   0.368   0.019   6.460
 6955SOL    HW122872   0.410  11.035   6.482
 6955SOL    HW222873   0.447   0.078   6.453
 6956SOL     OW22874   1.819  10.383   6.449
 6956SOL    HW122875   1.782  10.356   6.363
 6956SOL    HW222876   1.743  10.371   6.507
 6957SOL     OW22877   1.225  10.858   7.092
 6957SOL    HW122878   1.205  10.777   7.144
 6957SOL    HW222879   1.172  10.842   7.013
 6958SOL     OW22880   0.331  10.256   5.842
 6958SOL    HW122881   0.402  10.285   5.782
 6958SOL    HW222882   0.304  10.171   5.803
 6959SOL     OW22883   0.472  10.537   7.310
 6959SOL    HW122884   0.442  10.549   7.217
 6959SOL    HW222885   0.393  10.562   7.359
 6960SOL     OW22886   1.085  11.078   5.833
 6960SOL    HW122887   1.036  11.011   5.883
 6960SOL    HW222888   1.106  11.032   5.750
 6961SOL     OW22889   0.174   9.573   7.089
 6961SOL    HW122890   0.103   9.639   7.082
 6961SOL    HW222891   0.206   9.590   7.179
 6962SOL     OW22892   1.622  10.697   5.669
 6962SOL    HW122893   1.570  10.777   5.664
 6962SOL    HW222894   1.557  10.627   5.651
 6963SOL     OW22895   1.406   9.388   6.023
 6963SOL    HW122896   1.407   9.358   5.931
 6963SOL    HW222897   1.493   9.431   6.033
 6964SOL     OW22898   0.407  10.008   6.047
 6964SOL    HW122899   0.426   9.913   6.060
 6964SOL    HW222900   0.312  10.008   6.067
 6965SOL     OW22901   1.544   9.578   7.321
 6965SOL    HW122902   1.536   9.584   7.420
 6965SOL    HW222903   1.493   9.498   7.305
 6966SOL     OW22904   0.614   9.434   5.691
 6966SOL    HW122905   0.697   9.385   5.699
 6966SOL    HW222906   0.568   9.387   5.618
 6967SOL     OW22907   0.763   9.580   7.320
 6967SOL    HW122908   0.847   9.532   7.334
 6967SOL    HW222909   0.714   9.559   7.401
 6968SOL     OW22910   0.862  10.835   6.773
 6968SOL    HW122911   0.855  10.799   6.683
 6968SOL    HW222912   0.936  10.785   6.813
 6969SOL     OW22913   1.327   9.906   7.012
 6969SOL    HW122914   1.367   9.872   7.094
 6969SOL    HW222915   1.385   9.982   6.991
 6970SOL     OW22916   0.826  10.713   6.521
 6970SOL    HW122917   0.913  10.703   6.478
 6970SOL    HW222918   0.765  10.707   6.446
 6971SOL     OW22919   0.906   9.848   6.500
 6971SOL    HW122920   0.901   9.827   6.403
 6971SOL    HW222921   0.929   9.761   6.536
 6972SOL     OW22922   0.555   9.353   6.088
 6972SOL    HW122923   0.469   9.351   6.134
 6972SOL    HW222924   0.547   9.436   6.037
 6973SOL     OW22925   1.446  10.495   5.634
 6973SOL    HW122926   1.474  10.420   5.689
 6973SOL    HW222927   1.352  10.506   5.656
 6974SOL     OW22928   0.293   9.371   5.781
 6974SOL    HW122929   0.355   9.442   5.765
 6974SOL    HW222930   0.347   9.309   5.834
 6975SOL     OW22931   0.931   9.560   6.073
 6975SOL    HW122932   0.908   9.621   6.002
 6975SOL    HW222933   1.028   9.568   6.074
 6976SOL     OW22934   1.080   9.995   7.068
 6976SOL    HW122935   1.023   9.918   7.057
 6976SOL    HW222936   1.170   9.959   7.056
 6977SOL     OW22937   1.237  10.884   6.391
 6977SOL    HW122938   1.186  10.962   6.367
 6977SOL    HW222939   1.296  10.920   6.458
 6978SOL     OW22940   0.466  10.471   6.311
 6978SOL    HW122941   0.396  10.451   6.377
 6978SOL    HW222942   0.423  10.444   6.227
 6979SOL     OW22943   1.060   9.844   5.604
 6979SOL    HW122944   1.009   9.925   5.586
 6979SOL    HW222945   1.128   9.872   5.666
 6980SOL     OW22946   0.079   9.869   6.974
 6980SOL    HW122947   0.171   9.874   6.941
 6980SOL    HW222948   0.081   9.936   7.045
 6981SOL     OW22949   0.580   9.530   6.750
 6981SOL    HW122950   0.627   9.453   6.784
 6981SOL    HW222951   0.491   9.518   6.787
 6982SOL     OW22952   0.869   9.777   6.252
 6982SOL    HW122953   0.835   9.816   6.170
 6982SOL    HW222954   0.893   9.687   6.222
 6983SOL     OW22955   0.990   9.389   6.354
 6983SOL    HW122956   0.969   9.363   6.263
 6983SOL    HW222957   0.981   9.305   6.403
 6984SOL     OW22958   1.426  10.492   6.454
 6984SOL    HW122959   1.358  10.425   6.465
 6984SOL    HW222960   1.441  10.487   6.358
 6985SOL     OW22961   1.437   9.886   6.633
 6985SOL    HW122962   1.410   9.820   6.568
 6985SOL    HW222963   1.532   9.895   6.617
 6986SOL     OW22964   1.826  10.128   5.986
 6986SOL    HW122965   1.887  10.070   6.036
 6986SOL    HW222966   1.805  10.072   5.910
 6987SOL     OW22967   0.488  10.753   5.778
 6987SOL    HW122968   0.398  10.723   5.805
 6987SOL    HW222969   0.513  10.684   5.717
 6988SOL     OW22970   1.683  10.599   6.250
 6988SOL    HW122971   1.776  10.626   6.251
 6988SOL    HW222972   1.638  10.681   6.280
 6989SOL     OW22973   1.411   9.904   5.648
 6989SOL    HW122974   1.365   9.871   5.728
 6989SOL    HW222975   1.504   9.885   5.668
 6990SOL     OW22976   0.527   9.556   5.910
 6990SOL    HW122977   0.569   9.512   5.833
 6990SOL    HW222978   0.495   9.638   5.865
 6991SOL     OW22979   1.739  10.522   7.177
 6991SOL    HW122980   1.832  10.496   7.163
 6991SOL    HW222981   1.748  10.616   7.197
 6992SOL     OW22982   1.051  10.683   6.945
 6992SOL    HW122983   0.970  10.642   6.981
 6992SOL    HW222984   1.121  10.625   6.981
 6993SOL     OW22985   1.595  10.972   7.227
 6993SOL    HW122986   1.604  11.049   7.166
 6993SOL    HW222987   1.685  10.933   7.224
 6994SOL     OW22988   1.113  10.505   6.700
 6994SOL    HW122989   1.060  10.555   6.763
 6994SOL    HW222990   1.098  10.554   6.618
 6995SOL     OW22991   1.598  10.393   6.654
 6995SOL    HW122992   1.603  10.457   6.729
 6995SOL    HW222993   1.539  10.440   6.592
 6996SOL     OW22994   0.921   9.439   6.970
 6996SOL    HW122995   0.953   9.398   6.888
 6996SOL    HW222996   1.004   9.463   7.015
 6997SOL     OW22997   1.000  10.433   7.328
 6997SOL    HW122998   0.907  10.451   7.350
 6997SOL    HW222999   0.991  10.358   7.266
 6998SOL     OW23000   0.700  10.377   5.919
 6998SOL    HW123001   0.682  10.354   6.011
 6998SOL    HW223002   0.783  10.326   5.904
 6999SOL     OW23003   0.393  10.117   6.829
 6999SOL    HW123004   0.459  10.128   6.900
 6999SOL    HW223005   0.366  10.024   6.842
 7000SOL     OW23006   1.276   9.692   6.858
 7000SOL    HW123007   1.306   9.771   6.906
 7000SOL    HW223008   1.202   9.727   6.806
 7001SOL     OW23009   0.029  10.859   6.963
 7001SOL    HW123010  11.100  10.932   6.908
 7001SOL    HW223011   0.125  10.870   6.965
 7002SOL     OW23012   0.358  10.393   6.078
 7002SOL    HW123013   0.381  10.468   6.021
 7002SOL    HW223014   0.342  10.322   6.013
 7003SOL     OW23015   0.537   9.839   6.414
 7003SOL    HW123016   0.567   9.904   6.346
 7003SOL    HW223017   0.600   9.850   6.485
 7004SOL     OW23018   1.248  10.656   5.980
 7004SOL    HW123019   1.302  10.729   6.017
 7004SOL    HW223020   1.158  10.683   6.007
 7005SOL     OW23021   1.294  10.772   6.764
 7005SOL    HW123022   1.363  10.788   6.832
 7005SOL    HW223023   1.259  10.686   6.790
 7006SOL     OW23024   1.577   9.915   6.048
 7006SOL    HW123025   1.530   9.955   6.124
 7006SOL    HW223026   1.606   9.993   6.000
 7007SOL     OW23027   0.310  10.827   6.916
 7007SOL    HW123028   0.307  10.790   6.826
 7007SOL    HW223029   0.405  10.845   6.923
 7008SOL     OW23030   0.421  10.038   7.191
 7008SOL    HW123031   0.479  10.095   7.138
 7008SOL    HW223032   0.466   9.953   7.183
 7009SOL     OW23033   1.630  10.080   7.278
 7009SOL    HW123034   1.539  10.111   7.270
 7009SOL    HW223035   1.671  10.119   7.197
 7010SOL     OW23036   0.988   9.416   7.341
 7010SOL    HW123037   1.051   9.489   7.332
 7010SOL    HW223038   1.040   9.344   7.302
 7011SOL     OW23039   0.496   9.341   7.338
 7011SOL    HW123040   0.460   9.276   7.274
 7011SOL    HW223041   0.426   9.410   7.340
 7012SOL     OW23042   0.627  10.170   6.637
 7012SOL    HW123043   0.637  10.266   6.639
 7012SOL    HW223044   0.552  10.156   6.698
 7013SOL     OW23045   1.339  10.154   6.629
 7013SOL    HW123046   1.319  10.147   6.535
 7013SOL    HW223047   1.381  10.067   6.645
 7014SOL     OW23048   1.234   9.827   5.846
 7014SOL    HW123049   1.241   9.749   5.905
 7014SOL    HW223050   1.175   9.884   5.898
 7015SOL     OW23051   0.306   9.506   6.843
 7015SOL    HW123052   0.235   9.532   6.904
 7015SOL    HW223053   0.291   9.409   6.835
 7016SOL     OW23054   0.070  10.609   6.849
 7016SOL    HW123055   0.120  10.559   6.916
 7016SOL    HW223056   0.049  10.692   6.896
 7017SOL     OW23057   1.770  10.261   7.428
 7017SOL    HW123058   1.725  10.188   7.381
 7017SOL    HW223059   1.701  10.289   7.490
 7018SOL     OW23060   0.300   9.353   6.190
 7018SOL    HW123061   0.284   9.446   6.215
 7018SOL    HW223062   0.320   9.314   6.277
 7019SOL     OW23063   1.599   9.674   5.941
 7019SOL    HW123064   1.636   9.610   6.004
 7019SOL    HW223065   1.591   9.757   5.995
 7020SOL     OW23066   1.050  10.067   6.565
 7020SOL    HW123067   1.068  10.084   6.659
 7020SOL    HW223068   1.059   9.970   6.561
 7021SOL     OW23069   0.982  10.862   7.289
 7021SOL    HW123070   0.987  10.916   7.210
 7021SOL    HW223071   1.028  10.779   7.261
 7022SOL     OW23072   1.832  10.827   7.193
 7022SOL    HW123073   1.851  10.867   7.107
 7022SOL    HW223074   1.918  10.836   7.237
 7023SOL     OW23075   0.344  10.178   7.408
 7023SOL    HW123076   0.427  10.206   7.448
 7023SOL    HW223077   0.375  10.114   7.342
 7024SOL     OW23078   1.507   9.565   5.717
 7024SOL    HW123079   1.433   9.513   5.752
 7024SOL    HW223080   1.546   9.605   5.798
 7025SOL     OW23081   1.300  10.146   5.619
 7025SOL    HW123082   1.332  10.054   5.624
 7025SOL    HW223083   1.326  10.168   5.528
 7026SOL     OW23084   1.074  10.640   6.441
 7026SOL    HW123085   1.076  10.567   6.375
 7026SOL    HW223086   1.141  10.702   6.407
 7027SOL     OW23087   0.283  10.125   6.548
 7027SOL    HW123088   0.366  10.145   6.505
 7027SOL    HW223089   0.305  10.049   6.605
 7028SOL     OW23090   0.341   9.851   6.591
 7028SOL    HW123091   0.293   9.767   6.584
 7028SOL    HW223092   0.400   9.847   6.513
 7029SOL     OW23093   1.157   9.671   7.291
 7029SOL    HW123094   1.113   9.733   7.353
 7029SOL    HW223095   1.244   9.714   7.280
 7030SOL     OW23096   1.161   9.517   7.066
 7030SOL    HW123097   1.169   9.572   7.146
 7030SOL    HW223098   1.215   9.566   7.002
 7031SOL     OW23099  11.101  10.625   5.773
 7031SOL    HW123100  11.008  10.643   5.755
 7031SOL    HW223101  11.095  10.538   5.819
 7032SOL     OW23102   0.113   0.022   6.551
 7032SOL    HW123103   0.084  11.049   6.495
 7032SOL    HW223104   0.205   0.031   6.520
 7033SOL     OW23105   0.517  10.899   6.511
 7033SOL    HW123106   0.606  10.928   6.532
 7033SOL    HW223107   0.536  10.822   6.454
 7034SOL     OW23108   0.968  10.088   6.830
 7034SOL    HW123109   1.035  10.067   6.897
 7034SOL    HW223110   0.888  10.067   6.881
 7035SOL     OW23111  11.091   9.910   6.683
 7035SOL    HW123112   0.062   9.867   6.635
 7035SOL    HW223113   0.012   9.892   6.775
 7036SOL     OW23114   0.208   9.838   7.333
 7036SOL    HW123115   0.279   9.806   7.274
 7036SOL    HW223116   0.167   9.907   7.277
 7037SOL     OW23117   1.389  10.209   7.236
 7037SOL    HW123118   1.414  10.303   7.236
 7037SOL    HW223119   1.382  10.191   7.141
 7038SOL     OW23120   0.801   9.868   5.990
 7038SOL    HW123121   0.827   9.810   5.916
 7038SOL    HW223122   0.725   9.914   5.952
 7039SOL     OW23123   1.667   9.928   6.816
 7039SOL    HW123124   1.624   9.848   6.850
 7039SOL    HW223125   1.736   9.891   6.758
 7040SOL     OW23126   0.257  10.852   7.316
 7040SOL    HW123127   0.218  10.920   7.371
 7040SOL    HW223128   0.242  10.770   7.366
 7041SOL     OW23129   0.679   9.784   6.863
 7041SOL    HW123130   0.636   9.698   6.854
 7041SOL    HW223131   0.711   9.802   6.775
 7042SOL     OW23132   0.459   9.781   5.779
 7042SOL    HW123133   0.526   9.851   5.781
 7042SOL    HW223134   0.377   9.835   5.775
 7043SOL     OW23135   0.170  10.436   7.059
 7043SOL    HW123136   0.170  10.376   7.136
 7043SOL    HW223137   0.179  10.374   6.983
 7044SOL     OW23138   1.321  10.339   6.823
 7044SOL    HW123139   1.334  10.276   6.748
 7044SOL    HW223140   1.249  10.395   6.787
 7045SOL     OW23141   1.322  10.184   5.898
 7045SOL    HW123142   1.244  10.144   5.938
 7045SOL    HW223143   1.310  10.169   5.803
 7046SOL     OW23144   1.725  11.022   6.693
 7046SOL    HW123145   1.820  11.041   6.695
 7046SOL    HW223146   1.723  10.926   6.707
 7047SOL     OW23147   1.240  11.029   6.674
 7047SOL    HW123148   1.332  11.051   6.649
 7047SOL    HW223149   1.250  10.937   6.705
 7048SOL     OW23150   0.123  10.587   6.583
 7048SOL    HW123151   0.101  10.603   6.677
 7048SOL    HW223152   0.054  10.525   6.557
 7049SOL     OW23153   0.662  10.945   7.315
 7049SOL    HW123154   0.605  11.024   7.309
 7049SOL    HW223155   0.745  10.976   7.276
 7050SOL     OW23156   1.688   9.459   6.088
 7050SOL    HW123157   1.758   9.435   6.024
 7050SOL    HW223158   1.681   9.378   6.141
 7051SOL     OW23159   1.391  10.869   6.075
 7051SOL    HW123160   1.459  10.882   6.006
 7051SOL    HW223161   1.357  10.959   6.086
 7052SOL     OW23162   0.141  11.095   7.434
 7052SOL    HW123163   0.095  11.019   7.474
 7052SOL    HW223164   0.198   0.020   7.508
 7053SOL     OW23165   1.247  10.243   6.272
 7053SOL    HW123166   1.322  10.180   6.285
 7053SOL    HW223167   1.291  10.309   6.215
 7054SOL     OW23168   0.808  10.573   7.019
 7054SOL    HW123169   0.783  10.614   7.105
 7054SOL    HW223170   0.729  10.593   6.968
 7055SOL     OW23171   0.665  10.949   5.735
 7055SOL    HW123172   0.675  10.935   5.640
 7055SOL    HW223173   0.603  10.877   5.760
 7056SOL     OW23174   1.836   9.480   6.559
 7056SOL    HW123175   1.858   9.393   6.521
 7056SOL    HW223176   1.748   9.500   6.519
 7057SOL     OW23177   0.274   9.601   6.299
 7057SOL    HW123178   0.189   9.640   6.273
 7057SOL    HW223179   0.272   9.613   6.395
 7058SOL     OW23180   1.198  10.938   5.621
 7058SOL    HW123181   1.206  10.845   5.646
 7058SOL    HW223182   1.132  10.936   5.549
 7059SOL     OW23183   0.811  10.314   6.943
 7059SOL    HW123184   0.857  10.314   6.859
 7059SOL    HW223185   0.821  10.406   6.975
 7060SOL     OW23186   0.924  10.242   5.876
 7060SOL    HW123187   0.995  10.267   5.813
 7060SOL    HW223188   0.957  10.158   5.911
 7061SOL     OW23189   1.522  10.975   5.629
 7061SOL    HW123190   1.432  10.944   5.615
 7061SOL    HW223191   1.557  10.974   5.537
 7062SOL     OW23192   0.392  10.580   7.061
 7062SOL    HW123193   0.360  10.666   7.031
 7062SOL    HW223194   0.312  10.524   7.050
 7063SOL     OW23195   1.600  10.584   6.858
 7063SOL    HW123196   1.651  10.568   6.938
 7063SOL    HW223197   1.542  10.657   6.889
 7064SOL     OW23198   1.039  10.418   6.288
 7064SOL    HW123199   0.968  10.360   6.318
 7064SOL    HW223200   1.110  10.355   6.266
 7065SOL     OW23201   1.031   9.534   6.575
 7065SOL    HW123202   1.013   9.496   6.486
 7065SOL    HW223203   1.033   9.454   6.630
 7066SOL     OW23204   0.592  10.820   6.091
 7066SOL    HW123205   0.635  10.777   6.015
 7066SOL    HW223206   0.518  10.866   6.050
 7067SOL     OW23207   1.705   9.680   6.966
 7067SOL    HW123208   1.764   9.757   6.959
 7067SOL    HW223209   1.751   9.614   6.909
 7068SOL     OW23210   0.255  10.657   5.854
 7068SOL    HW123211   0.160  10.662   5.838
 7068SOL    HW223212   0.259  10.686   5.948
 7069SOL     OW23213   0.148  10.344   7.329
 7069SOL    HW123214   0.067  10.309   7.368
 7069SOL    HW223215   0.216  10.284   7.367
 7070SOL     OW23216   0.684   9.505   7.071
 7070SOL    HW123217   0.772   9.483   7.035
 7070SOL    HW223218   0.706   9.536   7.161
 7071SOL     OW23219   0.094   9.635   5.634
 7071SOL    HW123220   0.001   9.645   5.611
 7071SOL    HW223221   0.130   9.716   5.594
 7072SOL     OW23222   1.454  10.157   6.978
 7072SOL    HW123223   1.414  10.224   6.919
 7072SOL    HW223224   1.548  10.174   6.965
 7073SOL     OW23225   0.074   9.485   5.893
 7073SOL    HW123226   0.061   9.551   5.824
 7073SOL    HW223227   0.155   9.441   5.861
 7074SOL     OW23228   1.202  10.643   5.706
 7074SOL    HW123229   1.117  10.597   5.709
 7074SOL    HW223230   1.229  10.642   5.800
 7075SOL     OW23231   0.601  10.142   7.002
 7075SOL    HW123232   0.657  10.219   6.984
 7075SOL    HW223233   0.670  10.077   7.025
 7076SOL     OW23234   1.501  11.067   6.556
 7076SOL    HW123235   1.531   0.025   6.487
 7076SOL    HW223236   1.585  11.049   6.605
 7077SOL     OW23237   0.717   9.868   7.280
 7077SOL    HW123238   0.759   9.926   7.346
 7077SOL    HW223239   0.735   9.778   7.312
 7078SOL     OW23240   1.471  10.469   7.220
 7078SOL    HW123241   1.457  10.486   7.315
 7078SOL    HW223242   1.567  10.485   7.211
 7079SOL     OW23243   1.713  10.198   6.828
 7079SOL    HW123244   1.692  10.104   6.807
 7079SOL    HW223245   1.665  10.247   6.758
 7080SOL     OW23246   1.213   9.622   6.033
 7080SOL    HW123247   1.279   9.551   6.036
 7080SOL    HW223248   1.239   9.674   6.114
 7081SOL     OW23249   0.604  10.049   6.243
 7081SOL    HW123250   0.632  10.141   6.233
 7081SOL    HW223251   0.536  10.041   6.174
 7082SOL     OW23252   1.772   9.689   7.225
 7082SOL    HW123253   1.745   9.695   7.131
 7082SOL    HW223254   1.695   9.643   7.264
 7083SOL     OW23255   1.740  10.230   7.088
 7083SOL    HW123256   1.742  10.326   7.097
 7083SOL    HW223257   1.751  10.218   6.991
 7084SOL     OW23258   0.847  10.685   5.625
 7084SOL    HW123259   0.815  10.706   5.714
 7084SOL    HW223260   0.880  10.769   5.591
 7085SOL     OW23261   0.875  10.259   6.443
 7085SOL    HW123262   0.964  10.241   6.477
 7085SOL    HW223263   0.847  10.334   6.499
 7086SOL     OW23264   1.102  10.306   5.681
 7086SOL    HW123265   1.072  10.354   5.601
 7086SOL    HW223266   1.172  10.248   5.647
 7087SOL     OW23267   1.859  10.862   6.428
 7087SOL    HW123268   1.773  10.860   6.385
 7087SOL    HW223269   1.838  10.828   6.516
 7088SOL     OW23270   0.220  10.606   7.421
 7088SOL    HW123271   0.187  10.522   7.384
 7088SOL    HW223272   0.203  10.594   7.516
 7089SOL     OW23273   0.105  10.545   6.231
 7089SOL    HW123274   0.079  10.524   6.322
 7089SOL    HW223275   0.164  10.473   6.209
 7090SOL     OW23276   0.669  10.686   7.214
 7090SOL    HW123277   0.589  10.638   7.241
 7090SOL    HW223278   0.655  10.774   7.254
 7091SOL     OW23279   1.816   9.477   6.818
 7091SOL    HW123280   1.823   9.381   6.824
 7091SOL    HW223281   1.824   9.490   6.721
 7092SOL     OW23282   0.423   9.742   6.110
 7092SOL    HW123283   0.470   9.679   6.053
 7092SOL    HW223284   0.388   9.686   6.181
 7093SOL     OW23285   1.714  10.755   6.661
 7093SOL    HW123286   1.624  10.752   6.623
 7093SOL    HW223287   1.708  10.689   6.732
 7094SOL     OW23288   0.335   9.855   6.869
 7094SOL    HW123289   0.393   9.798   6.921
 7094SOL    HW223290   0.344   9.819   6.779
 7095SOL     OW23291   0.827  10.899   6.262
 7095SOL    HW123292   0.818  10.975   6.201
 7095SOL    HW223293   0.739  10.859   6.259
 7096SOL     OW23294   1.429   9.547   6.693
 7096SOL    HW123295   1.466   9.470   6.737
 7096SOL    HW223296   1.382   9.594   6.765
 7097SOL     OW23297   1.012   9.315   6.745
 7097SOL    HW123298   0.953   9.243   6.719
 7097SOL    HW223299   1.100   9.271   6.739
 7098SOL     OW23300   0.768  10.654   5.897
 7098SOL    HW123301   0.729  10.566   5.882
 7098SOL    HW223302   0.838  10.632   5.960
 7099SOL     OW23303   0.602  10.841   6.859
 7099SOL    HW123304   0.602  10.930   6.896
 7099SOL    HW223305   0.695  10.834   6.830
 7100SOL     OW23306   1.324   9.332   5.765
 7100SOL    HW123307   1.332   9.270   5.692
 7100SOL    HW223308   1.235   9.310   5.801
 7101SOL     OW23309   1.276   9.741   6.253
 7101SOL    HW123310   1.262   9.837   6.261
 7101SOL    HW223311   1.270   9.712   6.346
 7102SOL     OW23312   1.597   9.524   6.457
 7102SOL    HW123313   1.523   9.536   6.518
 7102SOL    HW223314   1.598   9.609   6.408
 7103SOL     OW23315   0.016  10.382   5.900
 7103SOL    HW123316   0.111  10.393   5.892
 7103SOL    HW223317   0.011  10.288   5.926
 7104SOL     OW23318   0.243   9.951   7.583
 7104SOL    HW123319   0.156   9.930   7.621
 7104SOL    HW223320   0.238   9.914   7.493
 7105SOL     OW23321   0.235   9.594   8.450
 7105SOL    HW123322   0.269   9.573   8.539
 7105SOL    HW223323   0.168   9.525   8.440
 7106SOL     OW23324  11.099   9.677   8.081
 7106SOL    HW123325  11.021   9.702   8.130
 7106SOL    HW223326  11.078   9.588   8.046
 7107SOL     OW23327   0.570  10.582   8.626
 7107SOL    HW123328   0.483  10.566   8.587
 7107SOL    HW223329   0.561  10.674   8.657
 7108SOL     OW23330   1.549  10.836   8.164
 7108SOL    HW123331   1.498  10.834   8.247
 7108SOL    HW223332   1.480  10.839   8.095
 7109SOL     OW23333   1.133   9.988   8.152
 7109SOL    HW123334   1.167  10.075   8.125
 7109SOL    HW223335   1.099  10.009   8.240
 7110SOL     OW23336   1.776   9.912   7.687
 7110SOL    HW123337   1.754   9.897   7.593
 7110SOL    HW223338   1.724   9.843   7.730
 7111SOL     OW23339   0.733  10.455   8.453
 7111SOL    HW123340   0.682  10.496   8.526
 7111SOL    HW223341   0.781  10.533   8.420
 7112SOL     OW23342   0.885  10.063   9.255
 7112SOL    HW123343   0.875  10.140   9.312
 7112SOL    HW223344   0.905  10.104   9.168
 7113SOL     OW23345   0.684  10.323   8.092
 7113SOL    HW123346   0.749  10.316   8.164
 7113SOL    HW223347   0.611  10.372   8.135
 7114SOL     OW23348   0.718  10.452   9.250
 7114SOL    HW123349   0.756  10.537   9.280
 7114SOL    HW223350   0.631  10.479   9.215
 7115SOL     OW23351   0.341  10.752   8.532
 7115SOL    HW123352   0.273  10.720   8.470
 7115SOL    HW223353   0.391  10.815   8.478
 7116SOL     OW23354   0.440   9.698   8.982
 7116SOL    HW123355   0.521   9.652   8.954
 7116SOL    HW223356   0.369   9.641   8.949
 7117SOL     OW23357   1.611   9.763   8.186
 7117SOL    HW123358   1.538   9.794   8.130
 7117SOL    HW223359   1.598   9.818   8.265
 7118SOL     OW23360   1.135  10.644   9.130
 7118SOL    HW123361   1.177  10.640   9.217
 7118SOL    HW223362   1.087  10.559   9.128
 7119SOL     OW23363   0.224  10.758   7.961
 7119SOL    HW123364   0.204  10.840   8.006
 7119SOL    HW223365   0.172  10.693   8.013
 7120SOL     OW23366   0.285  10.398   8.355
 7120SOL    HW123367   0.261  10.317   8.403
 7120SOL    HW223368   0.226  10.465   8.394
 7121SOL     OW23369   0.584  10.296   7.574
 7121SOL    HW123370   0.635  10.340   7.504
 7121SOL    HW223371   0.627  10.332   7.654
 7122SOL     OW23372   1.595   9.430   8.948
 7122SOL    HW123373   1.588   9.504   8.885
 7122SOL    HW223374   1.615   9.476   9.030
 7123SOL     OW23375   0.131   9.954   8.002
 7123SOL    HW123376   0.114   9.859   8.008
 7123SOL    HW223377   0.112   9.987   8.091
 7124SOL     OW23378   0.062  10.881   7.567
 7124SOL    HW123379   0.045  10.787   7.584
 7124SOL    HW223380   0.037  10.924   7.650
 7125SOL     OW23381   1.667  10.225   8.086
 7125SOL    HW123382   1.742  10.177   8.050
 7125SOL    HW223383   1.645  10.285   8.013
 7126SOL     OW23384   1.659  10.433   7.888
 7126SOL    HW123385   1.752  10.424   7.861
 7126SOL    HW223386   1.665  10.494   7.964
 7127SOL     OW23387   0.115  10.039   9.032
 7127SOL    HW123388   0.202  10.081   9.043
 7127SOL    HW223389   0.057  10.113   9.009
 7128SOL     OW23390   0.610  10.699   8.211
 7128SOL    HW123391   0.572  10.611   8.226
 7128SOL    HW223392   0.600  10.705   8.114
 7129SOL     OW23393   1.285  10.533   8.875
 7129SOL    HW123394   1.316  10.469   8.809
 7129SOL    HW223395   1.346  10.518   8.949
 7130SOL     OW23396   0.811   9.306   7.947
 7130SOL    HW123397   0.842   9.398   7.943
 7130SOL    HW223398   0.715   9.316   7.960
 7131SOL     OW23399   0.176  10.294   8.686
 7131SOL    HW123400   0.256  10.240   8.670
 7131SOL    HW223401   0.104  10.234   8.661
 7132SOL     OW23402   1.542  10.299   7.645
 7132SOL    HW123403   1.467  10.249   7.684
 7132SOL    HW223404   1.587  10.333   7.724
 7133SOL     OW23405   1.209   0.002   9.083
 7133SOL    HW123406   1.210   0.073   9.017
 7133SOL    HW223407   1.222  11.024   9.028
 7134SOL     OW23408   0.332   9.553   9.249
 7134SOL    HW123409   0.393   9.619   9.282
 7134SOL    HW223410   0.247   9.580   9.289
 7135SOL     OW23411   1.466  10.742   8.413
 7135SOL    HW123412   1.402  10.751   8.487
 7135SOL    HW223413   1.445  10.654   8.379
 7136SOL     OW23414   0.584  10.023   7.710
 7136SOL    HW123415   0.596  10.112   7.674
 7136SOL    HW223416   0.515  10.037   7.778
 7137SOL     OW23417   1.274   9.650   8.369
 7137SOL    HW123418   1.185   9.615   8.391
 7137SOL    HW223419   1.329   9.608   8.437
 7138SOL     OW23420   1.569  10.957   7.754
 7138SOL    HW123421   1.624  11.032   7.778
 7138SOL    HW223422   1.565  10.965   7.656
 7139SOL     OW23423   0.774   9.931   8.929
 7139SOL    HW123424   0.755   9.889   9.015
 7139SOL    HW223425   0.743   9.863   8.866
 7140SOL     OW23426   1.393   9.787   9.113
 7140SOL    HW123427   1.404   9.846   9.189
 7140SOL    HW223428   1.452   9.713   9.135
 7141SOL     OW23429   0.958  10.200   9.027
 7141SOL    HW123430   0.996  10.119   8.988
 7141SOL    HW223431   0.910  10.237   8.949
 7142SOL     OW23432   0.978   9.700   8.669
 7142SOL    HW123433   0.886   9.711   8.696
 7142SOL    HW223434   0.972   9.632   8.600
 7143SOL     OW23435   1.042   9.990   7.847
 7143SOL    HW123436   1.064  10.014   7.939
 7143SOL    HW223437   0.956   9.945   7.858
 7144SOL     OW23438   0.094  10.121   8.222
 7144SOL    HW123439   0.176  10.112   8.274
 7144SOL    HW223440   0.056  10.202   8.261
 7145SOL     OW23441   0.095   0.069   9.038
 7145SOL    HW123442   0.116   0.035   9.128
 7145SOL    HW223443  -0.000   0.057   9.031
 7146SOL     OW23444   0.869   9.688   7.654
 7146SOL    HW123445   0.913   9.742   7.586
 7146SOL    HW223446   0.901   9.600   7.632
 7147SOL     OW23447   1.706   9.880   9.292
 7147SOL    HW123448   1.676   9.961   9.246
 7147SOL    HW223449   1.736   9.827   9.216
 7148SOL     OW23450   1.363  10.461   8.003
 7148SOL    HW123451   1.446  10.462   7.953
 7148SOL    HW223452   1.310  10.525   7.954
 7149SOL     OW23453   0.587   9.513   8.336
 7149SOL    HW123454   0.580   9.521   8.433
 7149SOL    HW223455   0.573   9.604   8.308
 7150SOL     OW23456   0.987  10.747   7.931
 7150SOL    HW123457   0.929  10.808   7.884
 7150SOL    HW223458   0.983  10.780   8.022
 7151SOL     OW23459   0.363   0.021   8.315
 7151SOL    HW123460   0.408  11.041   8.344
 7151SOL    HW223461   0.438   0.084   8.309
 7152SOL     OW23462   1.801  10.373   8.322
 7152SOL    HW123463   1.742  10.358   8.246
 7152SOL    HW223464   1.740  10.363   8.397
 7153SOL     OW23465   1.195  10.865   8.955
 7153SOL    HW123466   1.202  10.775   8.990
 7153SOL    HW223467   1.207  10.851   8.860
 7154SOL     OW23468   0.331  10.263   7.699
 7154SOL    HW123469   0.410  10.278   7.645
 7154SOL    HW223470   0.298  10.179   7.664
 7155SOL     OW23471   1.467  10.067   8.177
 7155SOL    HW123472   1.474  10.030   8.266
 7155SOL    HW223473   1.546  10.123   8.170
 7156SOL     OW23474   0.474  10.538   9.176
 7156SOL    HW123475   0.440  10.554   9.085
 7156SOL    HW223476   0.398  10.566   9.230
 7157SOL     OW23477   1.084  11.063   7.705
 7157SOL    HW123478   1.002  11.024   7.736
 7157SOL    HW223479   1.099  11.020   7.619
 7158SOL     OW23480   0.178   9.591   8.939
 7158SOL    HW123481   0.101   9.642   8.970
 7158SOL    HW223482   0.187   9.525   9.009
 7159SOL     OW23483   1.618  10.693   7.537
 7159SOL    HW123484   1.568  10.776   7.533
 7159SOL    HW223485   1.553  10.627   7.505
 7160SOL     OW23486   1.371   9.438   7.889
 7160SOL    HW123487   1.364   9.395   7.802
 7160SOL    HW223488   1.466   9.443   7.902
 7161SOL     OW23489   0.408  10.010   7.915
 7161SOL    HW123490   0.428   9.915   7.927
 7161SOL    HW223491   0.315  10.011   7.942
 7162SOL     OW23492   1.541   9.578   9.182
 7162SOL    HW123493   1.532   9.583   9.281
 7162SOL    HW223494   1.493   9.496   9.164
 7163SOL     OW23495   0.627   9.445   7.542
 7163SOL    HW123496   0.699   9.387   7.568
 7163SOL    HW223497   0.584   9.394   7.471
 7164SOL     OW23498   0.765   9.578   9.197
 7164SOL    HW123499   0.844   9.519   9.204
 7164SOL    HW223500   0.709   9.547   9.269
 7165SOL     OW23501   0.871  10.839   8.637
 7165SOL    HW123502   0.861  10.798   8.549
 7165SOL    HW223503   0.939  10.784   8.679
 7166SOL     OW23504   1.326   9.909   8.874
 7166SOL    HW123505   1.365   9.868   8.954
 7166SOL    HW223506   1.387   9.982   8.854
 7167SOL     OW23507   0.842  10.705   8.391
 7167SOL    HW123508   0.929  10.691   8.350
 7167SOL    HW223509   0.785  10.714   8.312
 7168SOL     OW23510   0.941   9.844   8.359
 7168SOL    HW123511   0.914   9.830   8.266
 7168SOL    HW223512   0.963   9.753   8.384
 7169SOL     OW23513   0.540   9.345   7.943
 7169SOL    HW123514   0.462   9.357   8.000
 7169SOL    HW223515   0.536   9.427   7.889
 7170SOL     OW23516   1.438  10.492   7.483
 7170SOL    HW123517   1.470  10.421   7.541
 7170SOL    HW223518   1.346  10.505   7.512
 7171SOL     OW23519   0.296   9.336   7.640
 7171SOL    HW123520   0.361   9.407   7.630
 7171SOL    HW223521   0.347   9.270   7.690
 7172SOL     OW23522   0.930   9.564   7.940
 7172SOL    HW123523   0.914   9.619   7.862
 7172SOL    HW223524   1.026   9.573   7.951
 7173SOL     OW23525   1.071   9.989   8.914
 7173SOL    HW123526   1.018   9.909   8.921
 7173SOL    HW223527   1.163   9.955   8.911
 7174SOL     OW23528   1.240  10.887   8.246
 7174SOL    HW123529   1.184  10.963   8.223
 7174SOL    HW223530   1.277  10.916   8.330
 7175SOL     OW23531   0.464  10.459   8.174
 7175SOL    HW123532   0.397  10.441   8.244
 7175SOL    HW223533   0.415  10.434   8.093
 7176SOL     OW23534   1.057   9.856   7.472
 7176SOL    HW123535   1.016   9.942   7.459
 7176SOL    HW223536   1.135   9.876   7.526
 7177SOL     OW23537   0.059   9.885   8.825
 7177SOL    HW123538   0.151   9.876   8.796
 7177SOL    HW223539   0.068   9.944   8.902
 7178SOL     OW23540   0.578   9.532   8.606
 7178SOL    HW123541   0.620   9.456   8.648
 7178SOL    HW223542   0.487   9.527   8.642
 7179SOL     OW23543   0.876   9.775   8.113
 7179SOL    HW123544   0.825   9.823   8.046
 7179SOL    HW223545   0.895   9.691   8.069
 7180SOL     OW23546   1.005   9.385   8.216
 7180SOL    HW123547   0.969   9.361   8.131
 7180SOL    HW223548   0.982   9.309   8.272
 7181SOL     OW23549   1.427  10.494   8.330
 7181SOL    HW123550   1.356  10.429   8.337
 7181SOL    HW223551   1.443  10.496   8.234
 7182SOL     OW23552   1.484   9.884   8.419
 7182SOL    HW123553   1.420   9.814   8.437
 7182SOL    HW223554   1.542   9.883   8.497
 7183SOL     OW23555   1.824  10.134   7.849
 7183SOL    HW123556   1.886  10.079   7.901
 7183SOL    HW223557   1.804  10.074   7.775
 7184SOL     OW23558   0.481  10.747   7.628
 7184SOL    HW123559   0.401  10.712   7.671
 7184SOL    HW223560   0.486  10.693   7.549
 7185SOL     OW23561   1.667  10.586   8.120
 7185SOL    HW123562   1.763  10.600   8.116
 7185SOL    HW223563   1.633  10.673   8.146
 7186SOL     OW23564   1.417   9.916   7.514
 7186SOL    HW123565   1.370   9.877   7.591
 7186SOL    HW223566   1.507   9.883   7.526
 7187SOL     OW23567   0.519   9.548   7.765
 7187SOL    HW123568   0.567   9.517   7.686
 7187SOL    HW223569   0.492   9.637   7.734
 7188SOL     OW23570   1.733  10.522   9.031
 7188SOL    HW123571   1.827  10.501   9.016
 7188SOL    HW223572   1.737  10.619   9.044
 7189SOL     OW23573   1.054  10.659   8.784
 7189SOL    HW123574   0.981  10.627   8.838
 7189SOL    HW223575   1.132  10.618   8.828
 7190SOL     OW23576   1.586  10.969   9.096
 7190SOL    HW123577   1.550  10.971   9.005
 7190SOL    HW223578   1.672  10.926   9.082
 7191SOL     OW23579   1.105  10.503   8.560
 7191SOL    HW123580   1.071  10.562   8.628
 7191SOL    HW223581   1.096  10.557   8.480
 7192SOL     OW23582   1.598  10.399   8.527
 7192SOL    HW123583   1.608  10.465   8.598
 7192SOL    HW223584   1.542  10.447   8.463
 7193SOL     OW23585   0.934   9.407   8.851
 7193SOL    HW123586   0.958   9.393   8.757
 7193SOL    HW223587   1.013   9.452   8.887
 7194SOL     OW23588   0.992  10.422   9.194
 7194SOL    HW123589   0.898  10.444   9.201
 7194SOL    HW223590   0.991  10.349   9.129
 7195SOL     OW23591   0.707  10.379   7.805
 7195SOL    HW123592   0.690  10.348   7.896
 7195SOL    HW223593   0.793  10.337   7.786
 7196SOL     OW23594   0.389  10.125   8.700
 7196SOL    HW123595   0.462  10.129   8.764
 7196SOL    HW223596   0.363  10.031   8.705
 7197SOL     OW23597   1.276   9.694   8.710
 7197SOL    HW123598   1.293   9.772   8.766
 7197SOL    HW223599   1.184   9.708   8.680
 7198SOL     OW23600   0.037  10.867   8.818
 7198SOL    HW123601   0.003  10.936   8.758
 7198SOL    HW223602   0.134  10.877   8.812
 7199SOL     OW23603   0.351  10.396   7.936
 7199SOL    HW123604   0.393  10.466   7.884
 7199SOL    HW223605   0.336  10.327   7.868
 7200SOL     OW23606   0.557   9.851   8.299
 7200SOL    HW123607   0.584   9.907   8.224
 7200SOL    HW223608   0.612   9.884   8.372
 7201SOL     OW23609   1.245  10.663   7.839
 7201SOL    HW123610   1.301  10.733   7.880
 7201SOL    HW223611   1.156  10.691   7.867
 7202SOL     OW23612   1.292  10.765   8.626
 7202SOL    HW123613   1.361  10.806   8.684
 7202SOL    HW223614   1.275  10.681   8.670
 7203SOL     OW23615   1.585   9.924   7.921
 7203SOL    HW123616   1.533   9.977   7.983
 7203SOL    HW223617   1.616   9.991   7.858
 7204SOL     OW23618   0.313  10.833   8.781
 7204SOL    HW123619   0.310  10.793   8.692
 7204SOL    HW223620   0.407  10.856   8.785
 7205SOL     OW23621   0.413  10.046   9.052
 7205SOL    HW123622   0.478  10.087   8.993
 7205SOL    HW223623   0.444   9.955   9.052
 7206SOL     OW23624   1.628  10.080   9.134
 7206SOL    HW123625   1.537  10.115   9.131
 7206SOL    HW223626   1.666  10.121   9.054
 7207SOL     OW23627   0.987   9.422   9.203
 7207SOL    HW123628   1.047   9.496   9.184
 7207SOL    HW223629   1.035   9.349   9.162
 7208SOL     OW23630   0.483   9.334   9.212
 7208SOL    HW123631   0.452   9.274   9.140
 7208SOL    HW223632   0.417   9.406   9.208
 7209SOL     OW23633   0.601  10.205   8.481
 7209SOL    HW123634   0.629  10.298   8.482
 7209SOL    HW223635   0.547  10.197   8.561
 7210SOL     OW23636   1.351  10.178   8.477
 7210SOL    HW123637   1.270  10.135   8.448
 7210SOL    HW223638   1.414  10.105   8.482
 7211SOL     OW23639   1.231   9.828   7.710
 7211SOL    HW123640   1.236   9.759   7.779
 7211SOL    HW223641   1.165   9.888   7.749
 7212SOL     OW23642   0.317   9.504   8.694
 7212SOL    HW123643   0.247   9.531   8.756
 7212SOL    HW223644   0.303   9.407   8.689
 7213SOL     OW23645   0.058  10.609   8.719
 7213SOL    HW123646   0.114  10.560   8.781
 7213SOL    HW223647   0.046  10.696   8.763
 7214SOL     OW23648   0.728   9.954   8.505
 7214SOL    HW123649   0.810   9.934   8.457
 7214SOL    HW223650   0.708  10.047   8.481
 7215SOL     OW23651   1.763  10.259   9.289
 7215SOL    HW123652   1.718  10.194   9.233
 7215SOL    HW223653   1.694  10.283   9.352
 7216SOL     OW23654   0.279   9.356   8.060
 7216SOL    HW123655   0.264   9.450   8.082
 7216SOL    HW223656   0.311   9.321   8.145
 7217SOL     OW23657   1.592   9.680   7.805
 7217SOL    HW123658   1.631   9.615   7.865
 7217SOL    HW223659   1.586   9.760   7.861
 7218SOL     OW23660   1.070  10.069   8.418
 7218SOL    HW123661   1.043  10.084   8.511
 7218SOL    HW223662   1.030   9.981   8.401
 7219SOL     OW23663   0.979  10.858   9.161
 7219SOL    HW123664   0.998  10.918   9.088
 7219SOL    HW223665   1.028  10.778   9.133
 7220SOL     OW23666   1.835  10.825   9.057
 7220SOL    HW123667   1.859  10.842   8.964
 7220SOL    HW223668   1.922  10.824   9.101
 7221SOL     OW23669   0.338  10.180   9.270
 7221SOL    HW123670   0.425  10.211   9.298
 7221SOL    HW223671   0.362  10.121   9.196
 7222SOL     OW23672   1.499   9.561   7.579
 7222SOL    HW123673   1.428   9.503   7.611
 7222SOL    HW223674   1.538   9.597   7.661
 7223SOL     OW23675   1.300  10.152   7.478
 7223SOL    HW123676   1.348  10.069   7.496
 7223SOL    HW223677   1.329  10.171   7.387
 7224SOL     OW23678   1.083  10.641   8.299
 7224SOL    HW123679   1.084  10.563   8.239
 7224SOL    HW223680   1.157  10.695   8.269
 7225SOL     OW23681   0.297  10.127   8.406
 7225SOL    HW123682   0.387  10.146   8.376
 7225SOL    HW223683   0.309  10.041   8.450
 7226SOL     OW23684   0.335   9.853   8.447
 7226SOL    HW123685   0.298   9.764   8.437
 7226SOL    HW223686   0.410   9.850   8.383
 7227SOL     OW23687   1.152   9.682   9.144
 7227SOL    HW123688   1.110   9.738   9.212
 7227SOL    HW223689   1.241   9.721   9.138
 7228SOL     OW23690   1.156   9.523   8.927
 7228SOL    HW123691   1.163   9.583   9.004
 7228SOL    HW223692   1.213   9.566   8.861
 7229SOL     OW23693   0.000  10.622   7.627
 7229SOL    HW123694  11.009  10.642   7.610
 7229SOL    HW223695  11.094  10.538   7.676
 7230SOL     OW23696   0.116   0.015   8.416
 7230SOL    HW123697   0.089  11.043   8.357
 7230SOL    HW223698   0.208   0.028   8.384
 7231SOL     OW23699   0.522  10.907   8.380
 7231SOL    HW123700   0.610  10.946   8.386
 7231SOL    HW223701   0.540  10.828   8.326
 7232SOL     OW23702   0.960  10.078   8.675
 7232SOL    HW123703   1.012  10.049   8.752
 7232SOL    HW223704   0.871  10.048   8.698
 7233SOL     OW23705  11.085   9.908   8.541
 7233SOL    HW123706   0.056   9.872   8.489
 7233SOL    HW223707   0.008   9.881   8.631
 7234SOL     OW23708   0.213   9.844   9.198
 7234SOL    HW123709   0.266   9.793   9.135
 7234SOL    HW223710   0.169   9.907   9.137
 7235SOL     OW23711   1.385  10.199   9.097
 7235SOL    HW123712   1.412  10.293   9.102
 7235SOL    HW223713   1.372  10.188   9.001
 7236SOL     OW23714   0.797   9.872   7.843
 7236SOL    HW123715   0.809   9.808   7.770
 7236SOL    HW223716   0.717   9.920   7.816
 7237SOL     OW23717   1.649   9.915   8.638
 7237SOL    HW123718   1.631   9.852   8.709
 7237SOL    HW223719   1.733   9.881   8.600
 7238SOL     OW23720   0.235  10.844   9.168
 7238SOL    HW123721   0.216  10.919   9.225
 7238SOL    HW223722   0.247  10.771   9.231
 7239SOL     OW23723   0.677   9.785   8.721
 7239SOL    HW123724   0.640   9.704   8.684
 7239SOL    HW223725   0.683   9.845   8.644
 7240SOL     OW23726   0.457   9.791   7.646
 7240SOL    HW123727   0.520   9.864   7.651
 7240SOL    HW223728   0.373   9.841   7.642
 7241SOL     OW23729   0.171  10.439   8.916
 7241SOL    HW123730   0.174  10.379   8.992
 7241SOL    HW223731   0.180  10.378   8.840
 7242SOL     OW23732   1.318  10.350   8.684
 7242SOL    HW123733   1.342  10.296   8.605
 7242SOL    HW223734   1.243  10.400   8.650
 7243SOL     OW23735   1.325  10.171   7.749
 7243SOL    HW123736   1.239  10.146   7.785
 7243SOL    HW223737   1.310  10.171   7.653
 7244SOL     OW23738   1.772  11.038   8.602
 7244SOL    HW123739   1.820  10.992   8.532
 7244SOL    HW223740   1.710  10.970   8.634
 7245SOL     OW23741   1.246  11.017   8.526
 7245SOL    HW123742   1.341  11.038   8.523
 7245SOL    HW223743   1.248  10.926   8.561
 7246SOL     OW23744   0.122  10.583   8.451
 7246SOL    HW123745   0.099  10.594   8.546
 7246SOL    HW223746   0.053  10.523   8.420
 7247SOL     OW23747   0.667  10.952   9.176
 7247SOL    HW123748   0.611  11.032   9.169
 7247SOL    HW223749   0.750  10.982   9.139
 7248SOL     OW23750   1.683   9.452   7.951
 7248SOL    HW123751   1.758   9.434   7.892
 7248SOL    HW223752   1.677   9.369   8.002
 7249SOL     OW23753   1.392  10.882   7.933
 7249SOL    HW123754   1.461  10.901   7.866
 7249SOL    HW223755   1.352  10.970   7.944
 7250SOL     OW23756   0.156  11.087   9.293
 7250SOL    HW123757   0.099  11.020   9.336
 7250SOL    HW223758   0.206   0.017   9.369
 7251SOL     OW23759   1.255  10.220   8.102
 7251SOL    HW123760   1.334  10.170   8.130
 7251SOL    HW223761   1.295  10.301   8.065
 7252SOL     OW23762   0.805  10.566   8.892
 7252SOL    HW123763   0.781  10.613   8.974
 7252SOL    HW223764   0.729  10.587   8.836
 7253SOL     OW23765   0.664  10.938   7.589
 7253SOL    HW123766   0.672  10.925   7.493
 7253SOL    HW223767   0.598  10.870   7.613
 7254SOL     OW23768   1.844   9.473   8.416
 7254SOL    HW123769   1.859   9.383   8.384
 7254SOL    HW223770   1.754   9.495   8.382
 7255SOL     OW23771   0.266   9.611   8.153
 7255SOL    HW123772   0.174   9.640   8.142
 7255SOL    HW223773   0.275   9.607   8.249
 7256SOL     OW23774   1.194  10.930   7.483
 7256SOL    HW123775   1.205  10.835   7.500
 7256SOL    HW223776   1.137  10.933   7.404
 7257SOL     OW23777   0.830  10.306   8.813
 7257SOL    HW123778   0.865  10.302   8.723
 7257SOL    HW223779   0.833  10.401   8.835
 7258SOL     OW23780   0.925  10.246   7.736
 7258SOL    HW123781   1.002  10.269   7.680
 7258SOL    HW223782   0.943  10.154   7.761
 7259SOL     OW23783   1.526  10.962   7.488
 7259SOL    HW123784   1.435  10.938   7.472
 7259SOL    HW223785   1.560  10.970   7.397
 7260SOL     OW23786   0.390  10.591   8.933
 7260SOL    HW123787   0.360  10.678   8.903
 7260SOL    HW223788   0.314  10.534   8.911
 7261SOL     OW23789   1.602  10.606   8.725
 7261SOL    HW123790   1.642  10.585   8.811
 7261SOL    HW223791   1.568  10.696   8.741
 7262SOL     OW23792   1.052  10.415   8.161
 7262SOL    HW123793   0.984  10.364   8.208
 7262SOL    HW223794   1.108  10.345   8.124
 7263SOL     OW23795   1.035   9.537   8.434
 7263SOL    HW123796   1.019   9.494   8.348
 7263SOL    HW223797   1.033   9.461   8.494
 7264SOL     OW23798   0.590  10.810   7.950
 7264SOL    HW123799   0.626  10.772   7.869
 7264SOL    HW223800   0.542  10.887   7.917
 7265SOL     OW23801   1.710   9.688   8.833
 7265SOL    HW123802   1.777   9.758   8.826
 7265SOL    HW223803   1.750   9.618   8.775
 7266SOL     OW23804   0.256  10.637   7.726
 7266SOL    HW123805   0.163  10.655   7.705
 7266SOL    HW223806   0.263  10.678   7.815
 7267SOL     OW23807   0.146  10.353   9.193
 7267SOL    HW123808   0.062  10.314   9.222
 7267SOL    HW223809   0.212  10.289   9.228
 7268SOL     OW23810   0.698   9.508   8.916
 7268SOL    HW123811   0.785   9.472   8.888
 7268SOL    HW223812   0.716   9.539   9.007
 7269SOL     OW23813   0.087   9.632   7.483
 7269SOL    HW123814  11.096   9.653   7.493
 7269SOL    HW223815   0.117   9.708   7.430
 7270SOL     OW23816   1.452  10.160   8.827
 7270SOL    HW123817   1.408  10.233   8.779
 7270SOL    HW223818   1.545  10.183   8.814
 7271SOL     OW23819   0.072   9.455   7.747
 7271SOL    HW123820   0.073   9.535   7.692
 7271SOL    HW223821   0.154   9.410   7.722
 7272SOL     OW23822   1.198  10.632   7.567
 7272SOL    HW123823   1.111  10.592   7.577
 7272SOL    HW223824   1.227  10.639   7.660
 7273SOL     OW23825   0.613  10.137   8.865
 7273SOL    HW123826   0.677  10.209   8.854
 7273SOL    HW223827   0.675  10.063   8.885
 7274SOL     OW23828   1.517  11.068   8.413
 7274SOL    HW123829   1.541   0.027   8.342
 7274SOL    HW223830   1.598  11.058   8.464
 7275SOL     OW23831   0.714   9.849   9.174
 7275SOL    HW123832   0.772   9.909   9.223
 7275SOL    HW223833   0.743   9.760   9.199
 7276SOL     OW23834   1.471  10.454   9.091
 7276SOL    HW123835   1.459  10.483   9.184
 7276SOL    HW223836   1.565  10.477   9.076
 7277SOL     OW23837   1.702  10.180   8.674
 7277SOL    HW123838   1.680  10.089   8.645
 7277SOL    HW223839   1.655  10.236   8.610
 7278SOL     OW23840   1.204   9.650   7.916
 7278SOL    HW123841   1.266   9.575   7.910
 7278SOL    HW223842   1.239   9.699   7.994
 7279SOL     OW23843   0.606  10.043   8.107
 7279SOL    HW123844   0.637  10.135   8.105
 7279SOL    HW223845   0.536  10.043   8.040
 7280SOL     OW23846   1.772   9.690   9.096
 7280SOL    HW123847   1.744   9.706   9.004
 7280SOL    HW223848   1.695   9.642   9.132
 7281SOL     OW23849   1.729  10.231   8.939
 7281SOL    HW123850   1.744  10.326   8.947
 7281SOL    HW223851   1.747  10.214   8.844
 7282SOL     OW23852   0.835  10.675   7.490
 7282SOL    HW123853   0.810  10.691   7.582
 7282SOL    HW223854   0.871  10.760   7.461
 7283SOL     OW23855   0.879  10.266   8.298
 7283SOL    HW123856   0.934  10.204   8.347
 7283SOL    HW223857   0.831  10.313   8.369
 7284SOL     OW23858   1.104  10.317   7.546
 7284SOL    HW123859   1.068  10.363   7.468
 7284SOL    HW223860   1.168  10.255   7.505
 7285SOL     OW23861   1.876  10.856   8.304
 7285SOL    HW123862   1.796  10.856   8.251
 7285SOL    HW223863   1.847  10.809   8.383
 7286SOL     OW23864   0.241  10.622   9.308
 7286SOL    HW123865   0.199  10.550   9.258
 7286SOL    HW223866   0.198  10.615   9.394
 7287SOL     OW23867   0.104  10.556   8.087
 7287SOL    HW123868   0.091  10.523   8.176
 7287SOL    HW223869   0.157  10.487   8.046
 7288SOL     OW23870   0.667  10.695   9.076
 7288SOL    HW123871   0.587  10.647   9.106
 7288SOL    HW223872   0.653  10.784   9.112
 7289SOL     OW23873   1.816   9.483   8.680
 7289SOL    HW123874   1.816   9.387   8.684
 7289SOL    HW223875   1.825   9.497   8.583
 7290SOL     OW23876   0.423   9.747   7.972
 7290SOL    HW123877   0.478   9.682   7.927
 7290SOL    HW223878   0.380   9.694   8.042
 7291SOL     OW23879   1.716  10.773   8.519
 7291SOL    HW123880   1.626  10.771   8.481
 7291SOL    HW223881   1.703  10.726   8.603
 7292SOL     OW23882   0.323   9.855   8.723
 7292SOL    HW123883   0.384   9.797   8.770
 7292SOL    HW223884   0.336   9.831   8.629
 7293SOL     OW23885   0.815  10.900   8.135
 7293SOL    HW123886   0.813  10.974   8.071
 7293SOL    HW223887   0.728  10.860   8.124
 7294SOL     OW23888   1.436   9.552   8.552
 7294SOL    HW123889   1.441   9.460   8.585
 7294SOL    HW223890   1.385   9.597   8.622
 7295SOL     OW23891   1.001   9.326   8.596
 7295SOL    HW123892   0.953   9.246   8.575
 7295SOL    HW223893   1.092   9.290   8.611
 7296SOL     OW23894   0.768  10.644   7.762
 7296SOL    HW123895   0.728  10.556   7.755
 7296SOL    HW223896   0.832  10.630   7.833
 7297SOL     OW23897   0.595  10.861   8.726
 7297SOL    HW123898   0.603  10.954   8.747
 7297SOL    HW223899   0.687  10.839   8.703
 7298SOL     OW23900   1.311   9.342   7.627
 7298SOL    HW123901   1.330   9.279   7.557
 7298SOL    HW223902   1.223   9.308   7.658
 7299SOL     OW23903   1.299   9.774   8.134
 7299SOL    HW123904   1.242   9.853   8.141
 7299SOL    HW223905   1.283   9.730   8.220
 7300SOL     OW23906   1.597   9.523   8.320
 7300SOL    HW123907   1.530   9.538   8.389
 7300SOL    HW223908   1.589   9.603   8.264
 7301SOL     OW23909   0.009  10.389   7.766
 7301SOL    HW123910   0.105  10.404   7.768
 7301SOL    HW223911   0.006  10.294   7.789
 7302SOL     OW23912   0.238   9.949   9.449
 7302SOL    HW123913   0.149   9.932   9.486
 7302SOL    HW223914   0.228   9.920   9.356
 7303SOL     OW23915   0.224   9.586  10.292
 7303SOL    HW123916   0.260   9.563  10.380
 7303SOL    HW223917   0.157   9.517  10.281
 7304SOL     OW23918   0.003   9.691   9.941
 7304SOL    HW123919  11.033   9.704  10.005
 7304SOL    HW223920  11.085   9.602   9.906
 7305SOL     OW23921   0.570  10.578  10.470
 7305SOL    HW123922   0.480  10.579  10.433
 7305SOL    HW223923   0.571  10.663  10.515
 7306SOL     OW23924   1.544  10.838  10.022
 7306SOL    HW123925   1.485  10.841  10.099
 7306SOL    HW223926   1.483  10.846   9.945
 7307SOL     OW23927   1.123   9.996   9.993
 7307SOL    HW123928   1.164  10.083   9.982
 7307SOL    HW223929   1.062  10.012  10.066
 7308SOL     OW23930   1.764   9.911   9.552
 7308SOL    HW123931   1.748   9.902   9.456
 7308SOL    HW223932   1.716   9.834   9.586
 7309SOL     OW23933   0.751  10.451  10.320
 7309SOL    HW123934   0.687  10.490  10.383
 7309SOL    HW223935   0.791  10.533  10.285
 7310SOL     OW23936   0.838  10.092   0.002
 7310SOL    HW123937   0.840  10.159   0.071
 7310SOL    HW223938   0.890  10.135  11.032
 7311SOL     OW23939   0.686  10.324   9.965
 7311SOL    HW123940   0.747  10.318  10.040
 7311SOL    HW223941   0.612  10.375  10.002
 7312SOL     OW23942   0.349  10.739  10.379
 7312SOL    HW123943   0.271  10.726  10.323
 7312SOL    HW223944   0.393  10.816  10.338
 7313SOL     OW23945   1.467  10.793  10.664
 7313SOL    HW123946   1.502  10.875  10.701
 7313SOL    HW223947   1.410  10.762  10.736
 7314SOL     OW23948   0.470   9.713  10.835
 7314SOL    HW123949   0.544   9.654  10.811
 7314SOL    HW223950   0.392   9.655  10.832
 7315SOL     OW23951   1.625   9.761  10.054
 7315SOL    HW123952   1.558   9.799   9.995
 7315SOL    HW223953   1.654   9.836  10.106
 7316SOL     OW23954   0.221  10.761   9.829
 7316SOL    HW123955   0.217  10.841   9.883
 7316SOL    HW223956   0.172  10.697   9.885
 7317SOL     OW23957   0.277  10.409  10.203
 7317SOL    HW123958   0.247  10.328  10.246
 7317SOL    HW223959   0.226  10.478  10.249
 7318SOL     OW23960   0.575  10.305   9.429
 7318SOL    HW123961   0.630  10.350   9.361
 7318SOL    HW223962   0.616  10.339   9.511
 7319SOL     OW23963   1.600   9.420  10.809
 7319SOL    HW123964   1.597   9.503  10.760
 7319SOL    HW223965   1.598   9.448  10.901
 7320SOL     OW23966   0.140   9.935   9.870
 7320SOL    HW123967   0.099   9.846   9.877
 7320SOL    HW223968   0.107   9.980   9.950
 7321SOL     OW23969   0.038  10.901   9.432
 7321SOL    HW123970   0.027  10.806   9.445
 7321SOL    HW223971   0.005  10.938   9.514
 7322SOL     OW23972   1.655  10.231   9.954
 7322SOL    HW123973   1.743  10.197   9.932
 7322SOL    HW223974   1.639  10.290   9.877
 7323SOL     OW23975   1.657  10.427   9.757
 7323SOL    HW123976   1.749  10.422   9.724
 7323SOL    HW223977   1.665  10.493   9.829
 7324SOL     OW23978   0.136  10.029  10.918
 7324SOL    HW123979   0.232  10.048  10.923
 7324SOL    HW223980   0.097  10.117  10.926
 7325SOL     OW23981   0.602  10.694  10.074
 7325SOL    HW123982   0.554  10.609  10.069
 7325SOL    HW223983   0.595  10.722   9.980
 7326SOL     OW23984   1.312  10.554  10.748
 7326SOL    HW123985   1.316  10.469  10.705
 7326SOL    HW223986   1.353  10.536  10.834
 7327SOL     OW23987   0.819   9.300   9.818
 7327SOL    HW123988   0.849   9.392   9.811
 7327SOL    HW223989   0.722   9.312   9.827
 7328SOL     OW23990   0.182  10.288  10.569
 7328SOL    HW123991   0.264  10.239  10.549
 7328SOL    HW223992   0.113  10.221  10.555
 7329SOL     OW23993   1.539  10.289   9.519
 7329SOL    HW123994   1.460  10.246   9.559
 7329SOL    HW223995   1.589  10.317   9.597
 7330SOL     OW23996   1.243   0.001  10.897
 7330SOL    HW123997   1.203   0.066  10.838
 7330SOL    HW223998   1.241  11.021  10.844
 7331SOL     OW23999   0.322   9.559   0.031
 7331SOL    HW124000   0.387   9.628   0.053
 7331SOL    HW224001   0.238   9.598   0.062
 7332SOL     OW24002   1.479  10.723  10.285
 7332SOL    HW124003   1.406  10.738  10.348
 7332SOL    HW224004   1.447  10.647  10.234
 7333SOL     OW24005   0.581  10.035   9.567
 7333SOL    HW124006   0.653  10.081   9.522
 7333SOL    HW224007   0.512  10.103   9.561
 7334SOL     OW24008   1.278   9.643  10.232
 7334SOL    HW124009   1.188   9.609  10.246
 7334SOL    HW224010   1.329   9.596  10.301
 7335SOL     OW24011   1.565  10.948   9.615
 7335SOL    HW124012   1.617  11.025   9.642
 7335SOL    HW224013   1.560  10.958   9.518
 7336SOL     OW24014   0.789   9.934  10.787
 7336SOL    HW124015   0.759   9.899  10.873
 7336SOL    HW224016   0.759   9.865  10.724
 7337SOL     OW24017   1.000   9.680  10.555
 7337SOL    HW124018   0.935   9.731  10.604
 7337SOL    HW224019   0.946   9.632  10.490
 7338SOL     OW24020   1.032  10.000   9.710
 7338SOL    HW124021   1.062  10.010   9.801
 7338SOL    HW224022   0.950   9.948   9.721
 7339SOL     OW24023   0.099  10.121  10.065
 7339SOL    HW124024   0.172  10.104  10.128
 7339SOL    HW224025   0.056  10.196  10.108
 7340SOL     OW24026   0.126   0.058  10.917
 7340SOL    HW124027   0.113  11.099  10.991
 7340SOL    HW224028   0.037   0.067  10.880
 7341SOL     OW24029   0.901   9.710   9.515
 7341SOL    HW124030   0.943   9.762   9.444
 7341SOL    HW224031   0.907   9.621   9.479
 7342SOL     OW24032   1.361  10.458   9.870
 7342SOL    HW124033   1.440  10.460   9.814
 7342SOL    HW224034   1.304  10.522   9.823
 7343SOL     OW24035   0.593   9.512  10.203
 7343SOL    HW124036   0.590   9.518  10.300
 7343SOL    HW224037   0.557   9.598  10.175
 7344SOL     OW24038   0.984  10.750   9.778
 7344SOL    HW124039   0.917  10.796   9.725
 7344SOL    HW224040   0.969  10.788   9.866
 7345SOL     OW24041   0.372   0.018  10.167
 7345SOL    HW124042   0.416  11.038  10.198
 7345SOL    HW224043   0.446   0.082  10.169
 7346SOL     OW24044   1.789  10.390  10.200
 7346SOL    HW124045   1.734  10.368  10.123
 7346SOL    HW224046   1.732  10.364  10.275
 7347SOL     OW24047   1.214  10.849  10.792
 7347SOL    HW124048   1.219  10.786  10.864
 7347SOL    HW224049   1.160  10.800  10.727
 7348SOL     OW24050   0.346  10.237   9.560
 7348SOL    HW124051   0.412  10.280   9.503
 7348SOL    HW224052   0.289  10.193   9.494
 7349SOL     OW24053   1.460  10.086  10.076
 7349SOL    HW124054   1.499  10.016  10.130
 7349SOL    HW224055   1.538  10.130  10.037
 7350SOL     OW24056   0.451  10.558  11.053
 7350SOL    HW124057   0.429  10.573  10.959
 7350SOL    HW224058   0.407  10.474  11.070
 7351SOL     OW24059   1.081  11.078   9.552
 7351SOL    HW124060   1.002  11.036   9.588
 7351SOL    HW224061   1.102  11.023   9.474
 7352SOL     OW24062   0.217   9.602  10.796
 7352SOL    HW124063   0.136   9.654  10.806
 7352SOL    HW224064   0.199   9.525  10.850
 7353SOL     OW24065   1.615  10.695   9.399
 7353SOL    HW124066   1.563  10.775   9.385
 7353SOL    HW224067   1.551  10.624   9.375
 7354SOL     OW24068   1.386   9.437   9.758
 7354SOL    HW124069   1.377   9.391   9.672
 7354SOL    HW224070   1.482   9.442   9.768
 7355SOL     OW24071   0.628   9.437   9.413
 7355SOL    HW124072   0.699   9.373   9.428
 7355SOL    HW224073   0.576   9.391   9.343
 7356SOL     OW24074   0.758   9.547  11.031
 7356SOL    HW124075   0.834   9.534  11.089
 7356SOL    HW224076   0.704   9.610  11.081
 7357SOL     OW24077   0.896  10.840  10.505
 7357SOL    HW124078   0.879  10.794  10.421
 7357SOL    HW224079   0.953  10.778  10.553
 7358SOL     OW24080   1.353   9.894  10.737
 7358SOL    HW124081   1.416   9.869  10.805
 7358SOL    HW224082   1.387   9.982  10.711
 7359SOL     OW24083   0.836  10.704  10.256
 7359SOL    HW124084   0.920  10.704  10.206
 7359SOL    HW224085   0.769  10.702  10.186
 7360SOL     OW24086   0.954   9.829  10.218
 7360SOL    HW124087   0.917   9.813  10.128
 7360SOL    HW224088   0.971   9.738  10.246
 7361SOL     OW24089   0.558   9.357   9.816
 7361SOL    HW124090   0.475   9.358   9.866
 7361SOL    HW224091   0.548   9.435   9.758
 7362SOL     OW24092   1.442  10.497   9.355
 7362SOL    HW124093   1.468  10.420   9.410
 7362SOL    HW224094   1.349  10.509   9.376
 7363SOL     OW24095   0.283   9.350   9.503
 7363SOL    HW124096   0.344   9.415   9.469
 7363SOL    HW224097   0.343   9.290   9.552
 7364SOL     OW24098   0.934   9.560   9.800
 7364SOL    HW124099   0.915   9.606   9.717
 7364SOL    HW224100   1.030   9.574   9.808
 7365SOL     OW24101   1.097   9.957  10.702
 7365SOL    HW124102   1.045   9.980  10.780
 7365SOL    HW224103   1.187   9.944  10.738
 7366SOL     OW24104   1.232  10.880  10.116
 7366SOL    HW124105   1.188  10.951  10.069
 7366SOL    HW224106   1.274  10.927  10.189
 7367SOL     OW24107   0.461  10.461  10.029
 7367SOL    HW124108   0.392  10.449  10.098
 7367SOL    HW224109   0.415  10.434   9.947
 7368SOL     OW24110   1.057   9.855   9.332
 7368SOL    HW124111   1.011   9.938   9.314
 7368SOL    HW224112   1.133   9.881   9.386
 7369SOL     OW24113   0.087   9.909  10.683
 7369SOL    HW124114   0.181   9.895  10.663
 7369SOL    HW224115   0.092   9.954  10.769
 7370SOL     OW24116   0.589   9.525  10.476
 7370SOL    HW124117   0.626   9.454  10.530
 7370SOL    HW224118   0.496   9.526  10.506
 7371SOL     OW24119   0.867   9.776   9.972
 7371SOL    HW124120   0.826   9.814   9.893
 7371SOL    HW224121   0.891   9.688   9.940
 7372SOL     OW24122   1.025   9.388  10.069
 7372SOL    HW124123   0.977   9.378   9.985
 7372SOL    HW224124   0.996   9.308  10.118
 7373SOL     OW24125   1.428  10.471  10.192
 7373SOL    HW124126   1.340  10.443  10.166
 7373SOL    HW224127   1.471  10.485  10.106
 7374SOL     OW24128   1.435   9.903  10.323
 7374SOL    HW124129   1.401   9.812  10.322
 7374SOL    HW224130   1.516   9.896  10.377
 7375SOL     OW24131   1.833  10.134   9.712
 7375SOL    HW124132   1.889  10.076   9.767
 7375SOL    HW224133   1.818  10.080   9.633
 7376SOL     OW24134   0.484  10.751   9.488
 7376SOL    HW124135   0.406  10.715   9.534
 7376SOL    HW224136   0.477  10.706   9.404
 7377SOL     OW24137   1.667  10.585   9.980
 7377SOL    HW124138   1.763  10.601   9.990
 7377SOL    HW224139   1.630  10.674   9.991
 7378SOL     OW24140   1.400   9.900   9.365
 7378SOL    HW124141   1.355   9.860   9.442
 7378SOL    HW224142   1.492   9.875   9.381
 7379SOL     OW24143   0.520   9.548   9.631
 7379SOL    HW124144   0.566   9.509   9.553
 7379SOL    HW224145   0.490   9.632   9.591
 7380SOL     OW24146   1.761  10.522  10.902
 7380SOL    HW124147   1.854  10.508  10.879
 7380SOL    HW224148   1.761  10.611  10.940
 7381SOL     OW24149   1.051  10.663  10.674
 7381SOL    HW124150   0.964  10.627  10.705
 7381SOL    HW224151   1.112  10.592  10.700
 7382SOL     OW24152   1.108  10.501  10.417
 7382SOL    HW124153   1.021  10.508  10.458
 7382SOL    HW224154   1.097  10.552  10.335
 7383SOL     OW24155   1.586  10.374  10.391
 7383SOL    HW124156   1.604  10.447  10.454
 7383SOL    HW224157   1.537  10.421  10.320
 7384SOL     OW24158   0.913   9.408  10.692
 7384SOL    HW124159   0.949   9.384  10.604
 7384SOL    HW224160   0.990   9.452  10.732
 7385SOL     OW24161   0.706  10.376   9.676
 7385SOL    HW124162   0.703  10.353   9.770
 7385SOL    HW224163   0.788  10.332   9.646
 7386SOL     OW24164   0.402  10.125  10.562
 7386SOL    HW124165   0.473  10.135  10.628
 7386SOL    HW224166   0.377  10.032  10.576
 7387SOL     OW24167   1.273   9.691  10.572
 7387SOL    HW124168   1.289   9.770  10.628
 7387SOL    HW224169   1.179   9.701  10.548
 7388SOL     OW24170   0.056  10.877  10.678
 7388SOL    HW124171   0.033  10.935  10.604
 7388SOL    HW224172   0.153  10.874  10.677
 7389SOL     OW24173   0.353  10.393   9.794
 7389SOL    HW124174   0.379  10.475   9.748
 7389SOL    HW224175   0.348  10.330   9.720
 7390SOL     OW24176   0.536   9.857  10.155
 7390SOL    HW124177   0.577   9.904  10.082
 7390SOL    HW224178   0.599   9.870  10.228
 7391SOL     OW24179   1.241  10.661   9.700
 7391SOL    HW124180   1.299  10.731   9.737
 7391SOL    HW224181   1.152  10.693   9.727
 7392SOL     OW24182   1.282  10.755  10.466
 7392SOL    HW124183   1.341  10.774  10.541
 7392SOL    HW224184   1.218  10.692  10.501
 7393SOL     OW24185   1.587   9.936   9.794
 7393SOL    HW124186   1.542  10.013   9.831
 7393SOL    HW224187   1.628   9.973   9.714
 7394SOL     OW24188   0.328  10.806  10.640
 7394SOL    HW124189   0.329  10.772  10.549
 7394SOL    HW224190   0.416  10.846  10.648
 7395SOL     OW24191   0.412  10.041  10.906
 7395SOL    HW124192   0.477  10.081  10.845
 7395SOL    HW224193   0.434   9.947  10.897
 7396SOL     OW24194   1.616  10.059  10.996
 7396SOL    HW124195   1.555  10.121  11.036
 7396SOL    HW224196   1.668  10.116  10.936
 7397SOL     OW24197   0.584  10.215  10.339
 7397SOL    HW124198   0.629  10.301  10.346
 7397SOL    HW224199   0.549  10.199  10.428
 7398SOL     OW24200   1.233   9.825   9.579
 7398SOL    HW124201   1.234   9.751   9.643
 7398SOL    HW224202   1.167   9.883   9.620
 7399SOL     OW24203   0.313   9.507  10.533
 7399SOL    HW124204   0.259   9.544  10.606
 7399SOL    HW224205   0.291   9.412  10.539
 7400SOL     OW24206   0.064  10.622  10.594
 7400SOL    HW124207   0.117  10.571  10.658
 7400SOL    HW224208   0.059  10.710  10.634
 7401SOL     OW24209   0.724   9.935  10.338
 7401SOL    HW124210   0.813   9.914  10.305
 7401SOL    HW224211   0.715  10.031  10.326
 7402SOL     OW24212   0.295   9.358   9.922
 7402SOL    HW124213   0.273   9.449   9.948
 7402SOL    HW224214   0.323   9.320  10.008
 7403SOL     OW24215   1.581   9.693   9.662
 7403SOL    HW124216   1.621   9.627   9.720
 7403SOL    HW224217   1.572   9.770   9.722
 7404SOL     OW24218   1.073  10.064  10.285
 7404SOL    HW124219   1.031  10.082  10.372
 7404SOL    HW224220   1.038   9.974  10.266
 7405SOL     OW24221   0.984  10.858  10.972
 7405SOL    HW124222   1.003  10.900  10.887
 7405SOL    HW224223   0.947  10.773  10.946
 7406SOL     OW24224   1.825  10.837  10.911
 7406SOL    HW124225   1.863  10.848  10.822
 7406SOL    HW224226   1.903  10.832  10.967
 7407SOL     OW24227   0.368  10.221  11.086
 7407SOL    HW124228   0.452  10.222   0.034
 7407SOL    HW224229   0.384  10.148  11.022
 7408SOL     OW24230   1.495   9.565   9.435
 7408SOL    HW124231   1.437   9.493   9.466
 7408SOL    HW224232   1.530   9.602   9.518
 7409SOL     OW24233   1.305  10.142   9.344
 7409SOL    HW124234   1.342  10.052   9.349
 7409SOL    HW224235   1.327  10.165   9.251
 7410SOL     OW24236   1.094  10.630  10.167
 7410SOL    HW124237   1.081  10.562  10.097
 7410SOL    HW224238   1.148  10.699  10.123
 7411SOL     OW24239   0.290  10.125  10.267
 7411SOL    HW124240   0.378  10.163  10.285
 7411SOL    HW224241   0.295  10.042  10.317
 7412SOL     OW24242   0.326   9.845  10.316
 7412SOL    HW124243   0.289   9.758  10.293
 7412SOL    HW224244   0.401   9.851  10.254
 7413SOL     OW24245   1.151   9.514  10.775
 7413SOL    HW124246   1.184   9.573  10.843
 7413SOL    HW224247   1.178   9.561  10.694
 7414SOL     OW24248  -0.000  10.627   9.495
 7414SOL    HW124249  11.008  10.643   9.477
 7414SOL    HW224250  11.097  10.544   9.546
 7415SOL     OW24251   0.119  11.099  10.249
 7415SOL    HW124252   0.092  11.024  10.193
 7415SOL    HW224253   0.212   0.008  10.220
 7416SOL     OW24254   0.524  10.900  10.238
 7416SOL    HW124255   0.617  10.928  10.240
 7416SOL    HW224256   0.532  10.817  10.187
 7417SOL     OW24257   0.964  10.115  10.534
 7417SOL    HW124258   1.027  10.067  10.593
 7417SOL    HW224259   0.881  10.089  10.575
 7418SOL     OW24260  11.100   9.880  10.422
 7418SOL    HW124261   0.074   9.836  10.383
 7418SOL    HW224262   0.026   9.884  10.516
 7419SOL     OW24263   0.792   9.864   9.713
 7419SOL    HW124264   0.820   9.807   9.639
 7419SOL    HW224265   0.714   9.909   9.676
 7420SOL     OW24266   1.655   9.934  10.495
 7420SOL    HW124267   1.640   9.872  10.567
 7420SOL    HW224268   1.739   9.900  10.458
 7421SOL     OW24269   0.244  10.847  11.041
 7421SOL    HW124270   0.185  10.904  11.092
 7421SOL    HW224271   0.276  10.785   0.007
 7422SOL     OW24272   0.697   9.784  10.573
 7422SOL    HW124273   0.658   9.700  10.545
 7422SOL    HW224274   0.694   9.838  10.492
 7423SOL     OW24275   0.451   9.799   9.510
 7423SOL    HW124276   0.515   9.872   9.509
 7423SOL    HW224277   0.369   9.847   9.488
 7424SOL     OW24278   0.174  10.447  10.777
 7424SOL    HW124279   0.169  10.389  10.855
 7424SOL    HW224280   0.181  10.384  10.703
 7425SOL     OW24281   1.318  10.324  10.496
 7425SOL    HW124282   1.396  10.379  10.480
 7425SOL    HW224283   1.244  10.387  10.485
 7426SOL     OW24284   1.313  10.179   9.614
 7426SOL    HW124285   1.225  10.154   9.643
 7426SOL    HW224286   1.309  10.165   9.518
 7427SOL     OW24287   1.775  11.016  10.465
 7427SOL    HW124288   1.823  11.036  10.384
 7427SOL    HW224289   1.746  10.924  10.448
 7428SOL     OW24290   1.237  11.018  10.439
 7428SOL    HW124291   1.327  11.039  10.412
 7428SOL    HW224292   1.238  10.921  10.441
 7429SOL     OW24293   0.116  10.587  10.323
 7429SOL    HW124294   0.101  10.595  10.420
 7429SOL    HW224295   0.047  10.525  10.294
 7430SOL     OW24296   1.683   9.457   9.810
 7430SOL    HW124297   1.756   9.439   9.748
 7430SOL    HW224298   1.678   9.374   9.860
 7431SOL     OW24299   1.386  10.875   9.797
 7431SOL    HW124300   1.453  10.885   9.725
 7431SOL    HW224301   1.350  10.964   9.801
 7432SOL     OW24302   1.257  10.226   9.979
 7432SOL    HW124303   1.337  10.174  10.004
 7432SOL    HW224304   1.297  10.302   9.933
 7433SOL     OW24305   0.809  10.604  10.751
 7433SOL    HW124306   0.757  10.643  10.824
 7433SOL    HW224307   0.742  10.550  10.706
 7434SOL     OW24308   0.671  10.936   9.450
 7434SOL    HW124309   0.672  10.930   9.352
 7434SOL    HW224310   0.605  10.867   9.473
 7435SOL     OW24311   1.857   9.470  10.264
 7435SOL    HW124312   1.871   9.377  10.241
 7435SOL    HW224313   1.764   9.488  10.235
 7436SOL     OW24314   0.253   9.615  10.015
 7436SOL    HW124315   0.160   9.642  10.001
 7436SOL    HW224316   0.259   9.612  10.112
 7437SOL     OW24317   1.196  10.928   9.350
 7437SOL    HW124318   1.203  10.832   9.359
 7437SOL    HW224319   1.139  10.938   9.272
 7438SOL     OW24320   0.787  10.334  10.685
 7438SOL    HW124321   0.854  10.295  10.627
 7438SOL    HW224322   0.837  10.344  10.768
 7439SOL     OW24323   0.914  10.236   9.591
 7439SOL    HW124324   0.985  10.262   9.530
 7439SOL    HW224325   0.948  10.153   9.627
 7440SOL     OW24326   1.520  10.962   9.354
 7440SOL    HW124327   1.428  10.939   9.341
 7440SOL    HW224328   1.550  10.970   9.261
 7441SOL     OW24329   0.397  10.586  10.799
 7441SOL    HW124330   0.372  10.664  10.746
 7441SOL    HW224331   0.316  10.532  10.791
 7442SOL     OW24332   1.595  10.571  10.574
 7442SOL    HW124333   1.658  10.567  10.648
 7442SOL    HW224334   1.540  10.647  10.601
 7443SOL     OW24335   1.033  10.420  10.006
 7443SOL    HW124336   0.972  10.363  10.058
 7443SOL    HW224337   1.096  10.356   9.971
 7444SOL     OW24338   1.022   9.544  10.291
 7444SOL    HW124339   1.011   9.497  10.206
 7444SOL    HW224340   1.027   9.470  10.354
 7445SOL     OW24341   0.586  10.810   9.820
 7445SOL    HW124342   0.629  10.773   9.741
 7445SOL    HW224343   0.547  10.891   9.787
 7446SOL     OW24344   1.691   9.706  10.692
 7446SOL    HW124345   1.760   9.773  10.704
 7446SOL    HW224346   1.731   9.650  10.623
 7447SOL     OW24347   0.255  10.637   9.596
 7447SOL    HW124348   0.165  10.662   9.571
 7447SOL    HW224349   0.262  10.680   9.683
 7448SOL     OW24350   0.133  10.327  11.024
 7448SOL    HW124351   0.064  10.299  11.086
 7448SOL    HW224352   0.214  10.287  11.063
 7449SOL     OW24353   0.681   9.511  10.775
 7449SOL    HW124354   0.766   9.479  10.740
 7449SOL    HW224355   0.705   9.529  10.869
 7450SOL     OW24356   0.090   9.635   9.358
 7450SOL    HW124357  11.097   9.631   9.339
 7450SOL    HW224358   0.116   9.715   9.309
 7451SOL     OW24359   1.442  10.143  10.694
 7451SOL    HW124360   1.380  10.211  10.666
 7451SOL    HW224361   1.528  10.188  10.686
 7452SOL     OW24362   0.077   9.485   9.619
 7452SOL    HW124363   0.076   9.550   9.547
 7452SOL    HW224364   0.149   9.426   9.591
 7453SOL     OW24365   1.202  10.639   9.428
 7453SOL    HW124366   1.113  10.601   9.436
 7453SOL    HW224367   1.230  10.645   9.521
 7454SOL     OW24368   0.615  10.129  10.729
 7454SOL    HW124369   0.671  10.209  10.726
 7454SOL    HW224370   0.680  10.061  10.757
 7455SOL     OW24371   1.510  11.056  10.290
 7455SOL    HW124372   1.537   0.002  10.211
 7455SOL    HW224373   1.591  11.055  10.343
 7456SOL     OW24374   0.730   9.854  11.038
 7456SOL    HW124375   0.755   9.939  11.079
 7456SOL    HW224376   0.812   9.805  11.038
 7457SOL     OW24377   0.384  11.040  10.883
 7457SOL    HW124378   0.303  11.091  10.869
 7457SOL    HW224379   0.352  10.967  10.938
 7458SOL     OW24380   1.686  10.197  10.571
 7458SOL    HW124381   1.682  10.103  10.546
 7458SOL    HW224382   1.646  10.242  10.494
 7459SOL     OW24383   1.211   9.643   9.782
 7459SOL    HW124384   1.272   9.568   9.769
 7459SOL    HW224385   1.252   9.690   9.857
 7460SOL     OW24386   0.551  10.068   9.931
 7460SOL    HW124387   0.636  10.106   9.906
 7460SOL    HW224388   0.519  10.137   9.991
 7461SOL     OW24389   1.762   9.630  10.940
 7461SOL    HW124390   1.728   9.651  10.852
 7461SOL    HW224391   1.684   9.641  10.996
 7462SOL     OW24392   1.740  10.246  10.826
 7462SOL    HW124393   1.741  10.342  10.840
 7462SOL    HW224394   1.737  10.235  10.729
 7463SOL     OW24395   0.832  10.682   9.346
 7463SOL    HW124396   0.805  10.734   9.423
 7463SOL    HW224397   0.879  10.747   9.291
 7464SOL     OW24398   0.883  10.262  10.173
 7464SOL    HW124399   0.937  10.209  10.233
 7464SOL    HW224400   0.835  10.321  10.235
 7465SOL     OW24401   1.092  10.299   9.405
 7465SOL    HW124402   1.060  10.354   9.330
 7465SOL    HW224403   1.162  10.246   9.363
 7466SOL     OW24404   1.832  10.913  10.183
 7466SOL    HW124405   1.773  10.877  10.116
 7466SOL    HW224406   1.831  10.844  10.251
 7467SOL     OW24407   0.112  10.553   9.961
 7467SOL    HW124408   0.084  10.530  10.050
 7467SOL    HW224409   0.176  10.483   9.942
 7468SOL     OW24410   0.654  10.713  10.933
 7468SOL    HW124411   0.591  10.652  10.974
 7468SOL    HW224412   0.599  10.788  10.910
 7469SOL     OW24413   1.804   9.524  10.528
 7469SOL    HW124414   1.839   9.439  10.556
 7469SOL    HW224415   1.826   9.524  10.433
 7470SOL     OW24416   0.413   9.741   9.836
 7470SOL    HW124417   0.457   9.673   9.783
 7470SOL    HW224418   0.363   9.687   9.901
 7471SOL     OW24419   1.717  10.763  10.404
 7471SOL    HW124420   1.631  10.747  10.359
 7471SOL    HW224421   1.715  10.698  10.475
 7472SOL     OW24422   0.344   9.865  10.601
 7472SOL    HW124423   0.387   9.801  10.659
 7472SOL    HW224424   0.353   9.826  10.512
 7473SOL     OW24425   0.829  10.891   9.992
 7473SOL    HW124426   0.825  10.970   9.933
 7473SOL    HW224427   0.737  10.860   9.992
 7474SOL     OW24428   1.431   9.532  10.425
 7474SOL    HW124429   1.470   9.460  10.475
 7474SOL    HW224430   1.380   9.582  10.493
 7475SOL     OW24431   1.016   9.322  10.455
 7475SOL    HW124432   0.956   9.249  10.433
 7475SOL    HW224433   1.102   9.275  10.462
 7476SOL     OW24434   0.768  10.652   9.628
 7476SOL    HW124435   0.730  10.563   9.620
 7476SOL    HW224436   0.850  10.634   9.675
 7477SOL     OW24437   0.610  10.880  10.609
 7477SOL    HW124438   0.625  10.957  10.665
 7477SOL    HW224439   0.699  10.863  10.574
 7478SOL     OW24440   1.327   9.330   9.499
 7478SOL    HW124441   1.329   9.279   9.417
 7478SOL    HW224442   1.238   9.303   9.533
 7479SOL     OW24443   1.306   9.792  10.002
 7479SOL    HW124444   1.237   9.860   9.997
 7479SOL    HW224445   1.286   9.744  10.085
 7480SOL     OW24446   1.603   9.528  10.191
 7480SOL    HW124447   1.528   9.538  10.252
 7480SOL    HW224448   1.601   9.610  10.138
 7481SOL     OW24449   0.021  10.390   9.634
 7481SOL    HW124450   0.115  10.410   9.644
 7481SOL    HW224451   0.022  10.292   9.639
 7482SOL     OW24452   2.103   0.633   0.155
 7482SOL    HW124453   2.015   0.617   0.191
 7482SOL    HW224454   2.091   0.618   0.061
 7483SOL     OW24455   2.083   0.281   0.994
 7483SOL    HW124456   2.103   0.280   1.088
 7483SOL    HW224457   2.012   0.215   0.987
 7484SOL     OW24458   1.878   0.384   0.645
 7484SOL    HW124459   1.798   0.389   0.700
 7484SOL    HW224460   1.847   0.335   0.568
 7485SOL     OW24461   2.427   1.291   1.202
 7485SOL    HW124462   2.337   1.292   1.166
 7485SOL    HW224463   2.437   1.382   1.233
 7486SOL     OW24464   3.412   1.520   0.720
 7486SOL    HW124465   3.376   1.491   0.807
 7486SOL    HW224466   3.339   1.504   0.658
 7487SOL     OW24467   2.981   0.690   0.698
 7487SOL    HW124468   3.026   0.774   0.675
 7487SOL    HW224469   2.966   0.702   0.793
 7488SOL     OW24470   3.658   0.601   0.218
 7488SOL    HW124471   3.601   0.621   0.143
 7488SOL    HW224472   3.615   0.522   0.255
 7489SOL     OW24473   2.612   1.158   1.052
 7489SOL    HW124474   2.542   1.203   1.103
 7489SOL    HW224475   2.644   1.233   0.999
 7490SOL     OW24476   2.752   0.777   1.800
 7490SOL    HW124477   2.710   0.842   1.859
 7490SOL    HW224478   2.773   0.830   1.721
 7491SOL     OW24479   2.553   1.005   0.638
 7491SOL    HW124480   2.620   0.994   0.708
 7491SOL    HW224481   2.483   1.053   0.686
 7492SOL     OW24482   2.573   1.160   1.798
 7492SOL    HW124483   2.614   1.243   1.830
 7492SOL    HW224484   2.485   1.191   1.770
 7493SOL     OW24485   2.189   1.419   1.071
 7493SOL    HW124486   2.110   1.380   1.029
 7493SOL    HW224487   2.232   1.471   1.001
 7494SOL     OW24488   3.330   1.495   1.381
 7494SOL    HW124489   3.385   1.576   1.386
 7494SOL    HW224490   3.253   1.519   1.436
 7495SOL     OW24491   2.296   0.407   1.514
 7495SOL    HW124492   2.376   0.355   1.497
 7495SOL    HW224493   2.226   0.344   1.493
 7496SOL     OW24494   3.459   0.461   0.730
 7496SOL    HW124495   3.378   0.496   0.691
 7496SOL    HW224496   3.483   0.530   0.793
 7497SOL     OW24497   2.095   1.718   0.505
 7497SOL    HW124498   2.133   1.803   0.536
 7497SOL    HW224499   2.129   1.713   0.415
 7498SOL     OW24500   2.988   1.342   1.663
 7498SOL    HW124501   3.028   1.340   1.750
 7498SOL    HW224502   2.941   1.257   1.662
 7499SOL     OW24503   2.102   1.431   0.521
 7499SOL    HW124504   2.100   1.527   0.541
 7499SOL    HW224505   2.039   1.396   0.586
 7500SOL     OW24506   2.128   1.095   0.901
 7500SOL    HW124507   2.133   1.017   0.957
 7500SOL    HW224508   2.073   1.155   0.955
 7501SOL     OW24509   2.462   1.796   1.414
 7501SOL    HW124510   2.389   1.766   1.471
 7501SOL    HW224511   2.482   1.884   1.452
 7502SOL     OW24512   2.460   0.968   0.140
 7502SOL    HW124513   2.476   1.049   0.090
 7502SOL    HW224514   2.487   0.997   0.230
 7503SOL     OW24515   3.457   0.101   1.480
 7503SOL    HW124516   3.479   0.151   1.401
 7503SOL    HW224517   3.421   0.170   1.538
 7504SOL     OW24518   1.974   0.664   0.568
 7504SOL    HW124519   1.956   0.571   0.591
 7504SOL    HW224520   1.964   0.710   0.654
 7505SOL     OW24521   3.712   1.736   0.363
 7505SOL    HW124522   3.770   1.718   0.440
 7505SOL    HW224523   3.734   1.829   0.344
 7506SOL     OW24524   1.933   1.600   0.128
 7506SOL    HW124525   1.914   1.510   0.160
 7506SOL    HW224526   1.902   1.655   0.202
 7507SOL     OW24527   3.554   0.910   0.594
 7507SOL    HW124528   3.648   0.901   0.574
 7507SOL    HW224529   3.526   0.981   0.535
 7508SOL     OW24530   3.497   1.125   0.432
 7508SOL    HW124531   3.572   1.158   0.381
 7508SOL    HW224532   3.499   1.186   0.509
 7509SOL     OW24533   1.991   0.739   1.577
 7509SOL    HW124534   2.081   0.771   1.563
 7509SOL    HW224535   1.952   0.819   1.618
 7510SOL     OW24536   2.445   1.396   0.743
 7510SOL    HW124537   2.417   1.303   0.752
 7510SOL    HW224538   2.434   1.410   0.647
 7511SOL     OW24539   3.140   1.240   1.424
 7511SOL    HW124540   3.169   1.170   1.362
 7511SOL    HW224541   3.195   1.222   1.502
 7512SOL     OW24542   2.694   0.003   0.537
 7512SOL    HW124543   2.726   0.091   0.509
 7512SOL    HW224544   2.600   0.008   0.512
 7513SOL     OW24545   2.037   0.975   1.269
 7513SOL    HW124546   2.124   0.940   1.244
 7513SOL    HW224547   1.976   0.921   1.217
 7514SOL     OW24548   3.383   0.971   0.210
 7514SOL    HW124549   3.293   0.957   0.244
 7514SOL    HW224550   3.427   1.017   0.284
 7515SOL     OW24551   3.049   1.795   1.621
 7515SOL    HW124552   3.053   1.858   1.548
 7515SOL    HW224553   3.064   1.711   1.573
 7516SOL     OW24554   2.173   0.250   1.792
 7516SOL    HW124555   2.220   0.333   1.812
 7516SOL    HW224556   2.085   0.268   1.830
 7517SOL     OW24557   3.332   1.444   0.966
 7517SOL    HW124558   3.267   1.455   1.038
 7517SOL    HW224559   3.313   1.351   0.939
 7518SOL     OW24560   3.517   1.739   0.595
 7518SOL    HW124561   3.513   1.694   0.509
 7518SOL    HW224562   3.488   1.668   0.655
 7519SOL     OW24563   2.443   0.711   0.273
 7519SOL    HW124564   2.442   0.796   0.227
 7519SOL    HW224565   2.378   0.723   0.345
 7520SOL     OW24566   3.125   0.382   0.943
 7520SOL    HW124567   3.044   0.327   0.952
 7520SOL    HW224568   3.192   0.328   0.989
 7521SOL     OW24569   3.430   1.652   0.321
 7521SOL    HW124570   3.523   1.676   0.316
 7521SOL    HW224571   3.408   1.638   0.227
 7522SOL     OW24572   2.674   0.605   1.453
 7522SOL    HW124573   2.646   0.583   1.545
 7522SOL    HW224574   2.624   0.541   1.400
 7523SOL     OW24575   3.258   0.493   1.671
 7523SOL    HW124576   3.257   0.538   1.757
 7523SOL    HW224577   3.318   0.418   1.686
 7524SOL     OW24578   2.839   0.919   1.580
 7524SOL    HW124579   2.890   0.843   1.544
 7524SOL    HW224580   2.786   0.942   1.501
 7525SOL     OW24581   2.859   0.382   1.233
 7525SOL    HW124582   2.774   0.378   1.278
 7525SOL    HW224583   2.841   0.337   1.149
 7526SOL     OW24584   2.892   0.688   0.426
 7526SOL    HW124585   2.923   0.687   0.518
 7526SOL    HW224586   2.811   0.632   0.431
 7527SOL     OW24587   1.967   0.836   0.789
 7527SOL    HW124588   2.042   0.830   0.851
 7527SOL    HW224589   1.928   0.921   0.814
 7528SOL     OW24590   1.951   1.828   1.533
 7528SOL    HW124591   1.972   1.830   1.629
 7528SOL    HW224592   1.859   1.854   1.534
 7529SOL     OW24593   2.759   0.348   0.210
 7529SOL    HW124594   2.796   0.398   0.136
 7529SOL    HW224595   2.741   0.263   0.169
 7530SOL     OW24596   3.582   0.576   1.834
 7530SOL    HW124597   3.545   0.654   1.786
 7530SOL    HW224598   3.602   0.517   1.760
 7531SOL     OW24599   3.203   1.136   0.492
 7531SOL    HW124600   3.295   1.151   0.518
 7531SOL    HW224601   3.171   1.226   0.477
 7532SOL     OW24602   2.393   0.209   0.892
 7532SOL    HW124603   2.418   0.220   0.985
 7532SOL    HW224604   2.398   0.299   0.855
 7533SOL     OW24605   2.846   1.440   0.490
 7533SOL    HW124606   2.817   1.516   0.435
 7533SOL    HW224607   2.854   1.479   0.578
 7534SOL     OW24608   2.202   1.807   0.845
 7534SOL    HW124609   2.244   1.720   0.854
 7534SOL    HW224610   2.273   1.866   0.877
 7535SOL     OW24611   3.679   1.049   0.886
 7535SOL    HW124612   3.612   1.038   0.818
 7535SOL    HW224613   3.625   1.041   0.968
 7536SOL     OW24614   3.083   1.562   1.495
 7536SOL    HW124615   3.062   1.493   1.561
 7536SOL    HW224616   3.034   1.528   1.419
 7537SOL     OW24617   2.179   0.967   0.279
 7537SOL    HW124618   2.236   0.966   0.202
 7537SOL    HW224619   2.136   0.880   0.274
 7538SOL     OW24620   3.338   0.746   0.718
 7538SOL    HW124621   3.333   0.712   0.809
 7538SOL    HW224622   3.408   0.812   0.723
 7539SOL     OW24623   2.325   1.263   1.717
 7539SOL    HW124624   2.283   1.266   1.627
 7539SOL    HW224625   2.246   1.277   1.773
 7540SOL     OW24626   2.940   1.774   0.204
 7540SOL    HW124627   2.895   1.721   0.272
 7540SOL    HW224628   2.982   1.705   0.149
 7541SOL     OW24629   2.033   0.300   1.500
 7541SOL    HW124630   1.972   0.375   1.490
 7541SOL    HW224631   2.037   0.293   1.597
 7542SOL     OW24632   3.482   1.340   0.093
 7542SOL    HW124633   3.439   1.424   0.070
 7542SOL    HW224634   3.428   1.274   0.044
 7543SOL     OW24635   2.322   1.743   0.300
 7543SOL    HW124636   2.360   1.784   0.380
 7543SOL    HW224637   2.394   1.752   0.237
 7544SOL     OW24638   3.263   0.090   0.452
 7544SOL    HW124639   3.249   0.074   0.357
 7544SOL    HW224640   3.359   0.103   0.457
 7545SOL     OW24641   2.113   1.796   1.236
 7545SOL    HW124642   2.168   1.742   1.294
 7545SOL    HW224643   2.104   1.742   1.157
 7546SOL     OW24644   2.822   1.702   0.871
 7546SOL    HW124645   2.905   1.654   0.885
 7546SOL    HW224646   2.775   1.640   0.812
 7547SOL     OW24647   2.230   0.694   0.464
 7547SOL    HW124648   2.242   0.597   0.478
 7547SOL    HW224649   2.137   0.705   0.491
 7548SOL     OW24650   3.398   0.240   1.714
 7548SOL    HW124651   3.398   0.250   1.812
 7548SOL    HW224652   3.344   0.161   1.707
 7549SOL     OW24653   2.470   0.100   0.090
 7549SOL    HW124654   2.536   0.037   0.124
 7549SOL    HW224655   2.440   0.059   0.008
 7550SOL     OW24656   2.623   0.284   1.756
 7550SOL    HW124657   2.706   0.231   1.750
 7550SOL    HW224658   2.580   0.244   1.833
 7551SOL     OW24659   2.746   1.543   1.199
 7551SOL    HW124660   2.746   1.511   1.108
 7551SOL    HW224661   2.812   1.486   1.243
 7552SOL     OW24662   3.175   0.578   1.429
 7552SOL    HW124663   3.220   0.549   1.511
 7552SOL    HW224664   3.225   0.658   1.406
 7553SOL     OW24665   2.666   1.395   0.931
 7553SOL    HW124666   2.753   1.388   0.889
 7553SOL    HW224667   2.606   1.398   0.855
 7554SOL     OW24668   2.802   0.529   0.903
 7554SOL    HW124669   2.781   0.506   0.809
 7554SOL    HW224670   2.837   0.445   0.935
 7555SOL     OW24671   2.416   0.049   0.508
 7555SOL    HW124672   2.329   0.040   0.549
 7555SOL    HW224673   2.405   0.129   0.454
 7556SOL     OW24674   3.294   1.162   0.007
 7556SOL    HW124675   3.332   1.103   0.074
 7556SOL    HW224676   3.217   1.200   0.052
 7557SOL     OW24677   2.152   0.036   0.218
 7557SOL    HW124678   2.163   0.094   0.140
 7557SOL    HW224679   2.238  11.097   0.227
 7558SOL     OW24680   2.793   0.252   0.472
 7558SOL    HW124681   2.768   0.287   0.385
 7558SOL    HW224682   2.890   0.258   0.468
 7559SOL     OW24683   2.945   0.708   1.466
 7559SOL    HW124684   2.876   0.641   1.465
 7559SOL    HW224685   3.027   0.655   1.457
 7560SOL     OW24686   3.090   1.576   0.802
 7560SOL    HW124687   3.099   1.644   0.733
 7560SOL    HW224688   3.176   1.578   0.844
 7561SOL     OW24689   2.343   1.141   0.740
 7561SOL    HW124690   2.271   1.119   0.803
 7561SOL    HW224691   2.296   1.130   0.655
 7562SOL     OW24692   3.133   1.821   0.625
 7562SOL    HW124693   3.176   1.893   0.576
 7562SOL    HW224694   3.093   1.868   0.699
 7563SOL     OW24695   2.866   0.537  11.091
 7563SOL    HW124696   2.838   0.629  11.089
 7563SOL    HW224697   2.948   0.540   0.040
 7564SOL     OW24698   1.923   0.565   1.388
 7564SOL    HW124699   2.018   0.565   1.364
 7564SOL    HW224700   1.921   0.636   1.455
 7565SOL     OW24701   2.416   0.224   1.173
 7565SOL    HW124702   2.464   0.164   1.232
 7565SOL    HW224703   2.326   0.221   1.210
 7566SOL     OW24704   2.743   0.446   0.654
 7566SOL    HW124705   2.694   0.501   0.592
 7566SOL    HW224706   2.759   0.366   0.600
 7567SOL     OW24707   2.841   0.017   0.782
 7567SOL    HW124708   2.790   0.029   0.700
 7567SOL    HW224709   2.836  11.023   0.796
 7568SOL     OW24710   3.356   0.613   0.972
 7568SOL    HW124711   3.298   0.536   0.980
 7568SOL    HW224712   3.415   0.603   1.050
 7569SOL     OW24713   3.735   0.818   0.357
 7569SOL    HW124714   3.771   0.766   0.431
 7569SOL    HW224715   3.702   0.748   0.298
 7570SOL     OW24716   2.354   1.444   0.135
 7570SOL    HW124717   2.279   1.418   0.191
 7570SOL    HW224718   2.355   1.374   0.067
 7571SOL     OW24719   3.536   1.294   0.636
 7571SOL    HW124720   3.630   1.292   0.661
 7571SOL    HW224721   3.500   1.370   0.684
 7572SOL     OW24722   3.251   0.616   0.093
 7572SOL    HW124723   3.214   0.570   0.172
 7572SOL    HW224724   3.308   0.548   0.055
 7573SOL     OW24725   2.395   0.252   0.306
 7573SOL    HW124726   2.421   0.198   0.229
 7573SOL    HW224727   2.362   0.334   0.263
 7574SOL     OW24728   3.599   1.230   1.579
 7574SOL    HW124729   3.688   1.194   1.562
 7574SOL    HW224730   3.619   1.325   1.587
 7575SOL     OW24731   2.920   1.391   1.358
 7575SOL    HW124732   2.843   1.342   1.390
 7575SOL    HW224733   2.993   1.331   1.382
 7576SOL     OW24734   3.477   1.625   1.646
 7576SOL    HW124735   3.473   1.657   1.554
 7576SOL    HW224736   3.554   1.566   1.641
 7577SOL     OW24737   2.997   1.232   1.126
 7577SOL    HW124738   2.904   1.258   1.131
 7577SOL    HW224739   3.016   1.238   1.031
 7578SOL     OW24740   3.480   1.080   1.091
 7578SOL    HW124741   3.472   1.156   1.152
 7578SOL    HW224742   3.414   1.106   1.023
 7579SOL     OW24743   2.764   0.121   1.400
 7579SOL    HW124744   2.790   0.086   1.312
 7579SOL    HW224745   2.852   0.136   1.439
 7580SOL     OW24746   2.861   1.114   1.759
 7580SOL    HW124747   2.767   1.136   1.772
 7580SOL    HW224748   2.856   1.050   1.685
 7581SOL     OW24749   2.579   1.041   0.368
 7581SOL    HW124750   2.558   1.031   0.464
 7581SOL    HW224751   2.660   0.989   0.359
 7582SOL     OW24752   2.278   0.803   1.267
 7582SOL    HW124753   2.355   0.796   1.327
 7582SOL    HW224754   2.234   0.717   1.279
 7583SOL     OW24755   3.150   0.363   1.270
 7583SOL    HW124756   3.156   0.444   1.325
 7583SOL    HW224757   3.058   0.370   1.237
 7584SOL     OW24758   1.936   1.566   1.348
 7584SOL    HW124759   1.935   1.663   1.347
 7584SOL    HW224760   2.032   1.546   1.350
 7585SOL     OW24761   2.221   1.121   0.503
 7585SOL    HW124762   2.218   1.200   0.448
 7585SOL    HW224763   2.217   1.050   0.436
 7586SOL     OW24764   2.406   0.544   0.866
 7586SOL    HW124765   2.432   0.610   0.799
 7586SOL    HW224766   2.477   0.554   0.933
 7587SOL     OW24767   3.078   1.369   0.383
 7587SOL    HW124768   3.126   1.445   0.423
 7587SOL    HW224769   2.990   1.378   0.425
 7588SOL     OW24770   3.156   1.465   1.168
 7588SOL    HW124771   3.214   1.451   1.244
 7588SOL    HW224772   3.100   1.386   1.171
 7589SOL     OW24773   3.430   0.640   0.464
 7589SOL    HW124774   3.394   0.671   0.549
 7589SOL    HW224775   3.471   0.720   0.430
 7590SOL     OW24776   2.201   1.498   1.318
 7590SOL    HW124777   2.196   1.468   1.224
 7590SOL    HW224778   2.290   1.536   1.319
 7591SOL     OW24779   2.296   0.715   1.617
 7591SOL    HW124780   2.355   0.767   1.560
 7591SOL    HW224781   2.335   0.627   1.610
 7592SOL     OW24782   3.490   0.777   1.689
 7592SOL    HW124783   3.400   0.809   1.676
 7592SOL    HW224784   3.535   0.820   1.613
 7593SOL     OW24785   2.855   0.141   1.762
 7593SOL    HW124786   2.909   0.218   1.739
 7593SOL    HW224787   2.914   0.069   1.730
 7594SOL     OW24788   2.360   0.059   1.741
 7594SOL    HW124789   2.301  11.099   1.697
 7594SOL    HW224790   2.301   0.135   1.759
 7595SOL     OW24791   2.414   0.907   1.023
 7595SOL    HW124792   2.470   0.986   1.022
 7595SOL    HW224793   2.388   0.901   1.116
 7596SOL     OW24794   3.233   0.830   1.095
 7596SOL    HW124795   3.184   0.864   1.019
 7596SOL    HW224796   3.272   0.751   1.057
 7597SOL     OW24797   3.090   0.524   0.288
 7597SOL    HW124798   3.097   0.448   0.350
 7597SOL    HW224799   3.017   0.574   0.328
 7598SOL     OW24800   2.161   0.212   1.273
 7598SOL    HW124801   2.110   0.250   1.347
 7598SOL    HW224802   2.109   0.134   1.251
 7599SOL     OW24803   1.893   1.307   1.285
 7599SOL    HW124804   1.917   1.250   1.360
 7599SOL    HW224805   1.905   1.397   1.320
 7600SOL     OW24806   2.585   0.609   1.059
 7600SOL    HW124807   2.668   0.590   1.011
 7600SOL    HW224808   2.571   0.704   1.042
 7601SOL     OW24809   3.626   0.954   1.854
 7601SOL    HW124810   3.587   0.883   1.800
 7601SOL    HW224811   3.555   1.019   1.854
 7602SOL     OW24812   2.153   0.024   0.623
 7602SOL    HW124813   2.136   0.120   0.628
 7602SOL    HW224814   2.168   0.004   0.717
 7603SOL     OW24815   3.482   0.403   0.325
 7603SOL    HW124816   3.499   0.337   0.394
 7603SOL    HW224817   3.454   0.480   0.377
 7604SOL     OW24818   2.940   0.749   0.964
 7604SOL    HW124819   2.921   0.764   1.059
 7604SOL    HW224820   2.897   0.663   0.950
 7605SOL     OW24821   2.839   1.562   1.698
 7605SOL    HW124822   2.827   1.620   1.620
 7605SOL    HW224823   2.867   1.478   1.658
 7606SOL     OW24824   3.709   1.486   1.598
 7606SOL    HW124825   3.732   1.514   1.508
 7606SOL    HW224826   3.788   1.513   1.648
 7607SOL     OW24827   2.224   0.904   1.801
 7607SOL    HW124828   2.305   0.931   1.846
 7607SOL    HW224829   2.252   0.825   1.752
 7608SOL     OW24830   3.379   0.276   0.090
 7608SOL    HW124831   3.312   0.219   0.131
 7608SOL    HW224832   3.426   0.312   0.167
 7609SOL     OW24833   3.136   0.839  11.081
 7609SOL    HW124834   3.175   0.759   0.020
 7609SOL    HW224835   3.207   0.871  11.025
 7610SOL     OW24836   2.927   1.358   0.854
 7610SOL    HW124837   2.948   1.282   0.797
 7610SOL    HW224838   2.995   1.424   0.830
 7611SOL     OW24839   2.154   0.828   0.989
 7611SOL    HW124840   2.248   0.853   0.976
 7611SOL    HW224841   2.162   0.737   1.021
 7612SOL     OW24842   2.190   0.532   1.010
 7612SOL    HW124843   2.156   0.444   0.986
 7612SOL    HW224844   2.266   0.540   0.948
 7613SOL     OW24845   3.013   0.376   1.686
 7613SOL    HW124846   2.967   0.430   1.753
 7613SOL    HW224847   3.099   0.420   1.681
 7614SOL     OW24848   3.024   0.207   1.468
 7614SOL    HW124849   3.024   0.274   1.539
 7614SOL    HW224850   3.063   0.256   1.393
 7615SOL     OW24851   1.861   1.346   0.216
 7615SOL    HW124852   1.774   1.355   0.173
 7615SOL    HW224853   1.865   1.249   0.227
 7616SOL     OW24854   1.955   1.777   0.939
 7616SOL    HW124855   1.926   1.710   0.873
 7616SOL    HW224856   2.048   1.791   0.911
 7617SOL     OW24857   2.341   1.575   0.909
 7617SOL    HW124858   2.413   1.641   0.914
 7617SOL    HW224859   2.380   1.507   0.850
 7618SOL     OW24860   2.840   0.765   1.218
 7618SOL    HW124861   2.901   0.745   1.292
 7618SOL    HW224862   2.755   0.765   1.263
 7619SOL     OW24863   1.889   0.511   1.107
 7619SOL    HW124864   1.970   0.512   1.053
 7619SOL    HW224865   1.924   0.532   1.194
 7620SOL     OW24866   2.077   0.511   1.700
 7620SOL    HW124867   2.152   0.491   1.643
 7620SOL    HW224868   2.043   0.593   1.659
 7621SOL     OW24869   3.248   0.909   1.632
 7621SOL    HW124870   3.270   1.004   1.627
 7621SOL    HW224871   3.240   0.886   1.537
 7622SOL     OW24872   2.663   0.564   0.376
 7622SOL    HW124873   2.683   0.489   0.317
 7622SOL    HW224874   2.587   0.606   0.332
 7623SOL     OW24875   3.507   0.602   1.194
 7623SOL    HW124876   3.493   0.529   1.256
 7623SOL    HW224877   3.598   0.585   1.161
 7624SOL     OW24878   2.111   1.549   1.730
 7624SOL    HW124879   2.089   1.626   1.786
 7624SOL    HW224880   2.104   1.475   1.794
 7625SOL     OW24881   2.534   0.460   1.270
 7625SOL    HW124882   2.494   0.382   1.230
 7625SOL    HW224883   2.545   0.520   1.193
 7626SOL     OW24884   2.793   1.699   1.473
 7626SOL    HW124885   2.779   1.659   1.386
 7626SOL    HW224886   2.784   1.794   1.457
 7627SOL     OW24887   2.319   0.481   0.196
 7627SOL    HW124888   2.377   0.558   0.208
 7627SOL    HW224889   2.232   0.523   0.202
 7628SOL     OW24890   1.968   1.134   1.474
 7628SOL    HW124891   1.983   1.076   1.551
 7628SOL    HW224892   1.991   1.074   1.400
 7629SOL     OW24893   3.179   1.056   1.239
 7629SOL    HW124894   3.203   0.994   1.168
 7629SOL    HW224895   3.119   1.117   1.192
 7630SOL     OW24896   3.126   0.859   0.261
 7630SOL    HW124897   3.093   0.821   0.344
 7630SOL    HW224898   3.187   0.790   0.231
 7631SOL     OW24899   3.622   1.751   1.129
 7631SOL    HW124900   3.696   1.764   1.067
 7631SOL    HW224901   3.605   1.655   1.115
 7632SOL     OW24902   3.106   1.729   1.112
 7632SOL    HW124903   3.192   1.748   1.072
 7632SOL    HW224904   3.112   1.633   1.131
 7633SOL     OW24905   1.960   1.249   1.034
 7633SOL    HW124906   1.927   1.269   1.125
 7633SOL    HW224907   1.885   1.203   0.994
 7634SOL     OW24908   2.552   1.643   1.736
 7634SOL    HW124909   2.499   1.723   1.721
 7634SOL    HW224910   2.640   1.671   1.710
 7635SOL     OW24911   2.757   0.099   0.079
 7635SOL    HW124912   2.813   0.056   0.013
 7635SOL    HW224913   2.789   0.052   0.159
 7636SOL     OW24914   3.569   0.128   0.503
 7636SOL    HW124915   3.642   0.126   0.438
 7636SOL    HW224916   3.585   0.048   0.555
 7637SOL     OW24917   3.219   1.575   0.485
 7637SOL    HW124918   3.291   1.588   0.420
 7637SOL    HW224919   3.191   1.667   0.502
 7638SOL     OW24920   3.126   0.902   0.612
 7638SOL    HW124921   3.202   0.871   0.664
 7638SOL    HW224922   3.161   0.984   0.573
 7639SOL     OW24923   2.663   1.254   1.423
 7639SOL    HW124924   2.637   1.306   1.502
 7639SOL    HW224925   2.587   1.269   1.365
 7640SOL     OW24926   2.555   1.616   0.165
 7640SOL    HW124927   2.563   1.623   0.070
 7640SOL    HW224928   2.480   1.552   0.173
 7641SOL     OW24929   3.485   1.717   1.386
 7641SOL    HW124930   3.533   1.735   1.304
 7641SOL    HW224931   3.470   1.807   1.421
 7642SOL     OW24932   3.715   0.118   0.955
 7642SOL    HW124933   3.740   0.052   0.888
 7642SOL    HW224934   3.639   0.162   0.913
 7643SOL     OW24935   2.115   0.295   0.714
 7643SOL    HW124936   2.029   0.335   0.691
 7643SOL    HW224937   2.115   0.296   0.811
 7644SOL     OW24938   3.071   1.600   0.044
 7644SOL    HW124939   3.076   1.504   0.054
 7644SOL    HW224940   3.013   1.611  11.068
 7645SOL     OW24941   2.688   0.995   1.371
 7645SOL    HW124942   2.735   1.006   1.287
 7645SOL    HW224943   2.677   1.089   1.399
 7646SOL     OW24944   2.828   0.934   0.289
 7646SOL    HW124945   2.887   0.961   0.361
 7646SOL    HW224946   2.814   0.840   0.309
 7647SOL     OW24947   3.371   1.599   0.041
 7647SOL    HW124948   3.275   1.616   0.044
 7647SOL    HW224949   3.396   1.625  11.053
 7648SOL     OW24950   2.207   1.274   1.484
 7648SOL    HW124951   2.200   1.345   1.418
 7648SOL    HW224952   2.121   1.229   1.476
 7649SOL     OW24953   3.466   1.308   1.260
 7649SOL    HW124954   3.518   1.278   1.335
 7649SOL    HW224955   3.406   1.374   1.301
 7650SOL     OW24956   2.898   1.115   0.713
 7650SOL    HW124957   2.830   1.058   0.752
 7650SOL    HW224958   2.968   1.053   0.690
 7651SOL     OW24959   2.902   0.238   0.972
 7651SOL    HW124960   2.885   0.190   0.889
 7651SOL    HW224961   2.886   0.166   1.036
 7652SOL     OW24962   2.464   1.471   0.481
 7652SOL    HW124963   2.517   1.436   0.408
 7652SOL    HW224964   2.391   1.516   0.436
 7653SOL     OW24965   3.572   0.380   1.387
 7653SOL    HW124966   3.634   0.455   1.378
 7653SOL    HW224967   3.611   0.315   1.325
 7654SOL     OW24968   2.127   1.355   0.269
 7654SOL    HW124969   2.036   1.344   0.237
 7654SOL    HW224970   2.112   1.389   0.360
 7655SOL     OW24971   1.988   0.986   1.694
 7655SOL    HW124972   1.915   0.975   1.757
 7655SOL    HW224973   2.068   0.967   1.747
 7656SOL     OW24974   2.529   0.222   1.488
 7656SOL    HW124975   2.610   0.183   1.449
 7656SOL    HW224976   2.559   0.247   1.577
 7657SOL     OW24977   1.944   0.399   0.039
 7657SOL    HW124978   1.879   0.342  11.095
 7657SOL    HW224979   1.936   0.479  11.087
 7658SOL     OW24980   3.305   0.844   1.383
 7658SOL    HW124981   3.263   0.894   1.311
 7658SOL    HW224982   3.399   0.857   1.364
 7659SOL     OW24983   1.909   0.148   0.329
 7659SOL    HW124984   1.911   0.219   0.264
 7659SOL    HW224985   1.998   0.109   0.318
 7660SOL     OW24986   3.056   1.298   0.120
 7660SOL    HW124987   2.962   1.315   0.105
 7660SOL    HW224988   3.066   1.318   0.215
 7661SOL     OW24989   2.489   0.796   1.425
 7661SOL    HW124990   2.543   0.877   1.424
 7661SOL    HW224991   2.559   0.729   1.436
 7662SOL     OW24992   3.373   1.794   0.958
 7662SOL    HW124993   3.408   1.824   0.873
 7662SOL    HW224994   3.454   1.780   1.009
 7663SOL     OW24995   2.590   0.572   1.704
 7663SOL    HW124996   2.637   0.633   1.763
 7663SOL    HW224997   2.604   0.485   1.744
 7664SOL     OW24998   3.327   1.177   1.620
 7664SOL    HW124999   3.321   1.190   1.716
 7664SOL    HW225000   3.419   1.202   1.601
 7665SOL     OW25001   2.231   1.722   1.559
 7665SOL    HW125002   2.148   1.772   1.552
 7665SOL    HW225003   2.201   1.646   1.612
 7666SOL     OW25004   3.576   0.879   1.241
 7666SOL    HW125005   3.543   0.798   1.199
 7666SOL    HW225006   3.539   0.950   1.184
 7667SOL     OW25007   3.081   0.306   0.469
 7667SOL    HW125008   3.141   0.229   0.467
 7667SOL    HW225009   3.109   0.351   0.552
 7668SOL     OW25010   2.446   0.747   0.672
 7668SOL    HW125011   2.481   0.836   0.652
 7668SOL    HW225012   2.370   0.739   0.612
 7669SOL     OW25013   3.628   0.378   1.645
 7669SOL    HW125014   3.606   0.382   1.550
 7669SOL    HW225015   3.558   0.317   1.676
 7670SOL     OW25016   3.605   0.929   1.506
 7670SOL    HW125017   3.603   1.025   1.498
 7670SOL    HW225018   3.617   0.900   1.414
 7671SOL     OW25019   2.774   1.348   0.052
 7671SOL    HW125020   2.709   1.359   0.123
 7671SOL    HW225021   2.771   1.433   0.006
 7672SOL     OW25022   2.502   1.793   0.905
 7672SOL    HW125023   2.490   1.890   0.898
 7672SOL    HW225024   2.596   1.784   0.926
 7673SOL     OW25025   2.733   0.953   0.846
 7673SOL    HW125026   2.785   0.879   0.881
 7673SOL    HW225027   2.724   1.010   0.924
 7674SOL     OW25028   3.707   1.555   0.806
 7674SOL    HW125029   3.611   1.549   0.792
 7674SOL    HW225030   3.723   1.486   0.871
 7675SOL     OW25031   2.108   1.315   1.869
 7675SOL    HW125032   2.024   1.280   1.837
 7675SOL    HW225033   2.091   1.323   1.965
 7676SOL     OW25034   1.956   1.246   0.657
 7676SOL    HW125035   1.970   1.202   0.741
 7676SOL    HW225036   2.025   1.206   0.601
 7677SOL     OW25037   2.538   1.394   1.615
 7677SOL    HW125038   2.459   1.344   1.645
 7677SOL    HW225039   2.523   1.482   1.655
 7678SOL     OW25040   3.677   0.195   1.219
 7678SOL    HW125041   3.661   0.099   1.227
 7678SOL    HW225042   3.696   0.200   1.124
 7679SOL     OW25043   2.260   0.429   0.514
 7679SOL    HW125044   2.312   0.364   0.465
 7679SOL    HW225045   2.235   0.380   0.595
 7680SOL     OW25046   3.578   1.493   1.078
 7680SOL    HW125047   3.492   1.475   1.035
 7680SOL    HW225048   3.574   1.430   1.152
 7681SOL     OW25049   2.184   0.550   1.285
 7681SOL    HW125050   2.258   0.509   1.333
 7681SOL    HW225051   2.205   0.532   1.191
 7682SOL     OW25052   2.681   1.561   0.684
 7682SOL    HW125053   2.670   1.563   0.588
 7682SOL    HW225054   2.591   1.541   0.712
 7683SOL     OW25055   3.310   0.256   1.085
 7683SOL    HW125056   3.323   0.168   1.122
 7683SOL    HW225057   3.260   0.301   1.157
 7684SOL     OW25058   2.855   0.012   1.162
 7684SOL    HW125059   2.818  11.024   1.154
 7684SOL    HW225060   2.950  11.097   1.151
 7685SOL     OW25061   2.642   1.336   0.316
 7685SOL    HW125062   2.622   1.243   0.333
 7685SOL    HW225063   2.715   1.353   0.378
 7686SOL     OW25064   2.459   1.566   1.265
 7686SOL    HW125065   2.466   1.647   1.319
 7686SOL    HW225066   2.550   1.558   1.232
 7687SOL     OW25067   3.189   0.073   0.181
 7687SOL    HW125068   3.245   0.016   0.126
 7687SOL    HW225069   3.099   0.038   0.167
 7688SOL     OW25070   3.142   0.461   0.688
 7688SOL    HW125071   3.081   0.537   0.683
 7688SOL    HW225072   3.135   0.436   0.782
 7689SOL     OW25073   3.488   0.225   0.867
 7689SOL    HW125074   3.418   0.238   0.933
 7689SOL    HW225075   3.474   0.302   0.809
 7690SOL     OW25076   1.904   1.084   0.283
 7690SOL    HW125077   1.999   1.083   0.300
 7690SOL    HW225078   1.881   0.991   0.300
 7691SOL     OW25079   2.752   1.645   0.358
 7691SOL    HW125080   2.675   1.631   0.298
 7691SOL    HW225081   2.728   1.729   0.403
 7692SOL     OW25082   2.093   0.623   1.993
 7692SOL    HW125083   2.001   0.626   2.022
 7692SOL    HW225084   2.088   0.618   1.896
 7693SOL     OW25085   2.076   0.295   2.859
 7693SOL    HW125086   2.096   0.284   2.953
 7693SOL    HW225087   2.009   0.226   2.844
 7694SOL     OW25088   1.868   0.395   2.504
 7694SOL    HW125089   1.789   0.428   2.552
 7694SOL    HW225090   1.830   0.329   2.446
 7695SOL     OW25091   2.436   1.285   3.062
 7695SOL    HW125092   2.350   1.280   3.019
 7695SOL    HW225093   2.441   1.379   3.086
 7696SOL     OW25094   3.384   1.532   2.565
 7696SOL    HW125095   3.341   1.505   2.648
 7696SOL    HW225096   3.311   1.537   2.500
 7697SOL     OW25097   2.989   0.686   2.564
 7697SOL    HW125098   3.025   0.776   2.554
 7697SOL    HW225099   2.956   0.690   2.655
 7698SOL     OW25100   3.630   0.610   2.096
 7698SOL    HW125101   3.618   0.603   1.999
 7698SOL    HW225102   3.591   0.526   2.124
 7699SOL     OW25103   2.632   1.163   2.917
 7699SOL    HW125104   2.556   1.204   2.964
 7699SOL    HW225105   2.657   1.234   2.856
 7700SOL     OW25106   2.744   0.766   3.667
 7700SOL    HW125107   2.723   0.822   3.742
 7700SOL    HW225108   2.772   0.831   3.599
 7701SOL     OW25109   2.545   1.036   2.508
 7701SOL    HW125110   2.607   1.012   2.579
 7701SOL    HW225111   2.472   1.079   2.556
 7702SOL     OW25112   2.569   1.167   3.665
 7702SOL    HW125113   2.603   1.256   3.689
 7702SOL    HW225114   2.477   1.187   3.640
 7703SOL     OW25115   2.178   1.425   2.928
 7703SOL    HW125116   2.107   1.379   2.879
 7703SOL    HW225117   2.223   1.479   2.859
 7704SOL     OW25118   3.344   1.519   3.245
 7704SOL    HW125119   3.287   1.580   3.196
 7704SOL    HW225120   3.279   1.481   3.306
 7705SOL     OW25121   2.301   0.412   3.343
 7705SOL    HW125122   2.369   0.344   3.349
 7705SOL    HW225123   2.219   0.362   3.358
 7706SOL     OW25124   3.459   0.456   2.591
 7706SOL    HW125125   3.387   0.456   2.525
 7706SOL    HW225126   3.466   0.549   2.612
 7707SOL     OW25127   2.090   1.695   2.343
 7707SOL    HW125128   2.112   1.777   2.393
 7707SOL    HW225129   2.146   1.707   2.264
 7708SOL     OW25130   2.991   1.355   3.524
 7708SOL    HW125131   3.026   1.349   3.614
 7708SOL    HW225132   2.942   1.271   3.520
 7709SOL     OW25133   2.115   1.432   2.396
 7709SOL    HW125134   2.114   1.530   2.388
 7709SOL    HW225135   2.040   1.417   2.455
 7710SOL     OW25136   2.127   1.095   2.764
 7710SOL    HW125137   2.124   1.017   2.820
 7710SOL    HW225138   2.071   1.157   2.815
 7711SOL     OW25139   2.445   0.989   1.976
 7711SOL    HW125140   2.491   1.046   1.911
 7711SOL    HW225141   2.484   1.022   2.060
 7712SOL     OW25142   3.471   0.083   3.342
 7712SOL    HW125143   3.492   0.139   3.266
 7712SOL    HW225144   3.433   0.148   3.403
 7713SOL     OW25145   1.973   0.666   2.428
 7713SOL    HW125146   1.954   0.576   2.456
 7713SOL    HW225147   1.969   0.717   2.512
 7714SOL     OW25148   3.717   1.742   2.202
 7714SOL    HW125149   3.786   1.722   2.268
 7714SOL    HW225150   3.733   1.837   2.186
 7715SOL     OW25151   1.859   1.567   1.975
 7715SOL    HW125152   1.870   1.492   2.034
 7715SOL    HW225153   1.868   1.643   2.033
 7716SOL     OW25154   3.534   0.933   2.539
 7716SOL    HW125155   3.623   0.897   2.527
 7716SOL    HW225156   3.523   0.988   2.460
 7717SOL     OW25157   3.509   1.122   2.294
 7717SOL    HW125158   3.601   1.119   2.263
 7717SOL    HW225159   3.515   1.189   2.365
 7718SOL     OW25160   1.972   0.747   3.442
 7718SOL    HW125161   2.063   0.778   3.457
 7718SOL    HW225162   1.923   0.830   3.448
 7719SOL     OW25163   2.448   1.416   2.618
 7719SOL    HW125164   2.413   1.325   2.622
 7719SOL    HW225165   2.439   1.435   2.522
 7720SOL     OW25166   3.149   1.238   3.286
 7720SOL    HW125167   3.177   1.163   3.231
 7720SOL    HW225168   3.200   1.220   3.368
 7721SOL     OW25169   2.690   0.008   2.391
 7721SOL    HW125170   2.721   0.098   2.369
 7721SOL    HW225171   2.596   0.012   2.365
 7722SOL     OW25172   2.041   0.976   3.118
 7722SOL    HW125173   2.123   0.927   3.104
 7722SOL    HW225174   1.975   0.921   3.074
 7723SOL     OW25175   3.033   1.792   3.465
 7723SOL    HW125176   3.045   1.865   3.404
 7723SOL    HW225177   3.063   1.716   3.413
 7724SOL     OW25178   2.192   0.260   3.649
 7724SOL    HW125179   2.221   0.330   3.709
 7724SOL    HW225180   2.099   0.247   3.677
 7725SOL     OW25181   3.333   1.424   2.828
 7725SOL    HW125182   3.269   1.445   2.898
 7725SOL    HW225183   3.304   1.335   2.799
 7726SOL     OW25184   3.538   1.725   2.462
 7726SOL    HW125185   3.514   1.697   2.373
 7726SOL    HW225186   3.490   1.661   2.517
 7727SOL     OW25187   2.454   0.708   2.120
 7727SOL    HW125188   2.459   0.792   2.071
 7727SOL    HW225189   2.387   0.727   2.188
 7728SOL     OW25190   3.132   0.383   2.809
 7728SOL    HW125191   3.051   0.328   2.812
 7728SOL    HW225192   3.197   0.323   2.852
 7729SOL     OW25193   3.443   1.652   2.169
 7729SOL    HW125194   3.537   1.673   2.168
 7729SOL    HW225195   3.426   1.639   2.074
 7730SOL     OW25196   2.683   0.611   3.309
 7730SOL    HW125197   2.654   0.596   3.402
 7730SOL    HW225198   2.623   0.552   3.259
 7731SOL     OW25199   3.256   0.488   3.529
 7731SOL    HW125200   3.254   0.536   3.615
 7731SOL    HW225201   3.323   0.420   3.547
 7732SOL     OW25202   2.832   0.917   3.450
 7732SOL    HW125203   2.887   0.842   3.418
 7732SOL    HW225204   2.779   0.935   3.371
 7733SOL     OW25205   2.828   0.359   3.106
 7733SOL    HW125206   2.793   0.442   3.141
 7733SOL    HW225207   2.811   0.367   3.011
 7734SOL     OW25208   2.909   0.691   2.288
 7734SOL    HW125209   2.922   0.697   2.385
 7734SOL    HW225210   2.823   0.645   2.282
 7735SOL     OW25211   1.972   0.831   2.642
 7735SOL    HW125212   2.040   0.823   2.712
 7735SOL    HW225213   1.925   0.912   2.670
 7736SOL     OW25214   1.972   1.832   3.428
 7736SOL    HW125215   1.986   1.817   3.524
 7736SOL    HW225216   1.876   1.836   3.420
 7737SOL     OW25217   2.741   0.347   2.079
 7737SOL    HW125218   2.778   0.401   2.007
 7737SOL    HW225219   2.719   0.265   2.032
 7738SOL     OW25220   3.585   0.571   3.697
 7738SOL    HW125221   3.542   0.649   3.656
 7738SOL    HW225222   3.609   0.520   3.619
 7739SOL     OW25223   3.230   1.148   2.413
 7739SOL    HW125224   3.316   1.179   2.381
 7739SOL    HW225225   3.171   1.214   2.373
 7740SOL     OW25226   2.399   0.203   2.739
 7740SOL    HW125227   2.418   0.216   2.834
 7740SOL    HW225228   2.401   0.292   2.702
 7741SOL     OW25229   2.850   1.443   2.354
 7741SOL    HW125230   2.809   1.501   2.287
 7741SOL    HW225231   2.849   1.499   2.433
 7742SOL     OW25232   2.205   1.818   2.728
 7742SOL    HW125233   2.262   1.740   2.739
 7742SOL    HW225234   2.269   1.891   2.725
 7743SOL     OW25235   3.649   1.084   2.768
 7743SOL    HW125236   3.615   1.056   2.682
 7743SOL    HW225237   3.575   1.068   2.828
 7744SOL     OW25238   3.082   1.562   3.330
 7744SOL    HW125239   3.074   1.505   3.407
 7744SOL    HW225240   3.024   1.515   3.267
 7745SOL     OW25241   2.171   0.952   2.118
 7745SOL    HW125242   2.246   0.976   2.063
 7745SOL    HW225243   2.147   0.864   2.085
 7746SOL     OW25244   3.345   0.745   2.571
 7746SOL    HW125245   3.323   0.707   2.657
 7746SOL    HW225246   3.413   0.812   2.591
 7747SOL     OW25247   2.325   1.276   3.585
 7747SOL    HW125248   2.283   1.274   3.496
 7747SOL    HW225249   2.245   1.280   3.641
 7748SOL     OW25250   2.972   1.754   2.104
 7748SOL    HW125251   2.890   1.717   2.142
 7748SOL    HW225252   2.977   1.710   2.018
 7749SOL     OW25253   2.042   0.307   3.363
 7749SOL    HW125254   1.961   0.355   3.388
 7749SOL    HW225255   2.021   0.218   3.397
 7750SOL     OW25256   3.475   1.361   1.967
 7750SOL    HW125257   3.436   1.447   1.940
 7750SOL    HW225258   3.413   1.297   1.929
 7751SOL     OW25259   2.339   1.697   2.205
 7751SOL    HW125260   2.364   1.777   2.255
 7751SOL    HW225261   2.396   1.702   2.127
 7752SOL     OW25262   3.266   0.091   2.304
 7752SOL    HW125263   3.252   0.077   2.208
 7752SOL    HW225264   3.361   0.111   2.310
 7753SOL     OW25265   2.106   1.781   3.095
 7753SOL    HW125266   2.161   1.705   3.119
 7753SOL    HW225267   2.089   1.767   3.001
 7754SOL     OW25268   2.824   1.689   2.751
 7754SOL    HW125269   2.905   1.638   2.750
 7754SOL    HW225270   2.773   1.646   2.680
 7755SOL     OW25271   2.229   0.684   2.321
 7755SOL    HW125272   2.246   0.589   2.337
 7755SOL    HW225273   2.134   0.691   2.343
 7756SOL     OW25274   3.400   0.234   3.576
 7756SOL    HW125275   3.406   0.245   3.674
 7756SOL    HW225276   3.328   0.170   3.573
 7757SOL     OW25277   2.506   0.121   1.955
 7757SOL    HW125278   2.529   0.034   1.990
 7757SOL    HW225279   2.450   0.098   1.878
 7758SOL     OW25280   2.630   0.287   3.602
 7758SOL    HW125281   2.715   0.239   3.610
 7758SOL    HW225282   2.582   0.250   3.679
 7759SOL     OW25283   2.744   1.534   3.052
 7759SOL    HW125284   2.734   1.506   2.959
 7759SOL    HW225285   2.804   1.467   3.088
 7760SOL     OW25286   3.183   0.580   3.284
 7760SOL    HW125287   3.218   0.548   3.370
 7760SOL    HW225288   3.239   0.657   3.268
 7761SOL     OW25289   2.692   1.405   2.796
 7761SOL    HW125290   2.774   1.395   2.744
 7761SOL    HW225291   2.625   1.413   2.726
 7762SOL     OW25292   2.811   0.533   2.769
 7762SOL    HW125293   2.777   0.516   2.677
 7762SOL    HW225294   2.841   0.445   2.793
 7763SOL     OW25295   2.404   0.031   2.369
 7763SOL    HW125296   2.315   0.029   2.407
 7763SOL    HW225297   2.400   0.111   2.314
 7764SOL     OW25298   3.286   1.177   1.893
 7764SOL    HW125299   3.231   1.098   1.900
 7764SOL    HW225300   3.221   1.246   1.919
 7765SOL     OW25301   2.166   0.045   2.082
 7765SOL    HW125302   2.227   0.120   2.088
 7765SOL    HW225303   2.220  11.072   2.112
 7766SOL     OW25304   2.801   0.256   2.346
 7766SOL    HW125305   2.771   0.287   2.259
 7766SOL    HW225306   2.898   0.263   2.337
 7767SOL     OW25307   2.951   0.714   3.322
 7767SOL    HW125308   2.879   0.650   3.335
 7767SOL    HW225309   3.030   0.656   3.313
 7768SOL     OW25310   3.100   1.580   2.655
 7768SOL    HW125311   3.088   1.635   2.575
 7768SOL    HW225312   3.172   1.626   2.699
 7769SOL     OW25313   2.334   1.165   2.609
 7769SOL    HW125314   2.256   1.136   2.660
 7769SOL    HW225315   2.302   1.150   2.517
 7770SOL     OW25316   3.132   1.811   2.463
 7770SOL    HW125317   3.182   1.881   2.416
 7770SOL    HW225318   3.078   1.863   2.524
 7771SOL     OW25319   2.910   0.556   1.866
 7771SOL    HW125320   2.862   0.638   1.847
 7771SOL    HW225321   2.976   0.582   1.932
 7772SOL     OW25322   1.928   0.566   3.253
 7772SOL    HW125323   2.021   0.558   3.228
 7772SOL    HW225324   1.931   0.637   3.321
 7773SOL     OW25325   2.418   0.218   3.034
 7773SOL    HW125326   2.455   0.154   3.096
 7773SOL    HW225327   2.325   0.221   3.062
 7774SOL     OW25328   2.742   0.449   2.526
 7774SOL    HW125329   2.688   0.497   2.461
 7774SOL    HW225330   2.766   0.368   2.476
 7775SOL     OW25331   2.868   0.010   2.636
 7775SOL    HW125332   2.825   0.038   2.554
 7775SOL    HW225333   2.827  11.026   2.653
 7776SOL     OW25334   3.287   1.171   2.745
 7776SOL    HW125335   3.207   1.117   2.737
 7776SOL    HW225336   3.318   1.172   2.653
 7777SOL     OW25337   3.330   0.603   2.844
 7777SOL    HW125338   3.267   0.532   2.823
 7777SOL    HW225339   3.396   0.556   2.897
 7778SOL     OW25340   3.659   0.805   2.268
 7778SOL    HW125341   3.735   0.775   2.321
 7778SOL    HW225342   3.660   0.738   2.195
 7779SOL     OW25343   2.363   1.403   1.983
 7779SOL    HW125344   2.283   1.404   2.039
 7779SOL    HW225345   2.328   1.368   1.900
 7780SOL     OW25346   3.529   1.284   2.511
 7780SOL    HW125347   3.626   1.290   2.521
 7780SOL    HW225348   3.498   1.375   2.529
 7781SOL     OW25349   3.272   0.591   1.929
 7781SOL    HW125350   3.223   0.560   2.008
 7781SOL    HW225351   3.355   0.541   1.936
 7782SOL     OW25352   2.377   0.244   2.169
 7782SOL    HW125353   2.433   0.210   2.097
 7782SOL    HW225354   2.352   0.333   2.134
 7783SOL     OW25355   3.599   1.233   3.440
 7783SOL    HW125356   3.689   1.198   3.442
 7783SOL    HW225357   3.617   1.328   3.452
 7784SOL     OW25358   2.922   1.376   3.218
 7784SOL    HW125359   2.842   1.332   3.251
 7784SOL    HW225360   2.994   1.320   3.253
 7785SOL     OW25361   3.470   1.628   3.497
 7785SOL    HW125362   3.453   1.586   3.413
 7785SOL    HW225363   3.553   1.586   3.524
 7786SOL     OW25364   2.991   1.248   2.966
 7786SOL    HW125365   2.910   1.234   3.016
 7786SOL    HW225366   2.959   1.269   2.877
 7787SOL     OW25367   3.448   1.083   2.951
 7787SOL    HW125368   3.469   1.150   3.019
 7787SOL    HW225369   3.391   1.134   2.892
 7788SOL     OW25370   2.860   1.132   3.605
 7788SOL    HW125371   2.768   1.153   3.625
 7788SOL    HW225372   2.851   1.055   3.544
 7789SOL     OW25373   2.584   1.065   2.205
 7789SOL    HW125374   2.563   1.048   2.298
 7789SOL    HW225375   2.659   1.004   2.188
 7790SOL     OW25376   2.269   0.794   3.118
 7790SOL    HW125377   2.339   0.793   3.186
 7790SOL    HW225378   2.228   0.706   3.130
 7791SOL     OW25379   3.153   0.347   3.147
 7791SOL    HW125380   3.165   0.430   3.197
 7791SOL    HW225381   3.083   0.372   3.086
 7792SOL     OW25382   1.936   1.568   3.201
 7792SOL    HW125383   1.939   1.660   3.170
 7792SOL    HW225384   2.031   1.544   3.200
 7793SOL     OW25385   2.237   1.115   2.362
 7793SOL    HW125386   2.234   1.178   2.289
 7793SOL    HW225387   2.211   1.033   2.317
 7794SOL     OW25388   2.396   0.546   2.693
 7794SOL    HW125389   2.425   0.615   2.629
 7794SOL    HW225390   2.459   0.556   2.766
 7795SOL     OW25391   3.097   1.337   2.265
 7795SOL    HW125392   3.131   1.424   2.294
 7795SOL    HW225393   3.002   1.347   2.286
 7796SOL     OW25394   3.152   1.460   3.041
 7796SOL    HW125395   3.185   1.414   3.119
 7796SOL    HW225396   3.081   1.399   3.014
 7797SOL     OW25397   3.434   0.623   2.328
 7797SOL    HW125398   3.396   0.667   2.406
 7797SOL    HW225399   3.496   0.688   2.292
 7798SOL     OW25400   2.203   1.496   3.175
 7798SOL    HW125401   2.188   1.467   3.082
 7798SOL    HW225402   2.298   1.517   3.171
 7799SOL     OW25403   2.292   0.721   3.484
 7799SOL    HW125404   2.349   0.767   3.421
 7799SOL    HW225405   2.316   0.629   3.468
 7800SOL     OW25406   3.489   0.770   3.540
 7800SOL    HW125407   3.402   0.812   3.547
 7800SOL    HW225408   3.524   0.811   3.459
 7801SOL     OW25409   2.860   0.138   3.624
 7801SOL    HW125410   2.923   0.212   3.624
 7801SOL    HW225411   2.919   0.063   3.605
 7802SOL     OW25412   2.349   0.051   3.587
 7802SOL    HW125413   2.277  11.091   3.568
 7802SOL    HW225414   2.299   0.133   3.609
 7803SOL     OW25415   2.451   0.875   2.911
 7803SOL    HW125416   2.475   0.968   2.905
 7803SOL    HW225417   2.392   0.873   2.988
 7804SOL     OW25418   3.235   0.845   2.914
 7804SOL    HW125419   3.150   0.845   2.867
 7804SOL    HW225420   3.259   0.751   2.902
 7805SOL     OW25421   3.090   0.518   2.126
 7805SOL    HW125422   3.099   0.445   2.190
 7805SOL    HW225423   3.017   0.568   2.165
 7806SOL     OW25424   2.166   0.213   3.131
 7806SOL    HW125425   2.117   0.254   3.205
 7806SOL    HW225426   2.113   0.135   3.113
 7807SOL     OW25427   1.876   1.307   3.141
 7807SOL    HW125428   1.900   1.248   3.215
 7807SOL    HW225429   1.900   1.394   3.176
 7808SOL     OW25430   2.568   0.605   2.902
 7808SOL    HW125431   2.654   0.597   2.858
 7808SOL    HW225432   2.545   0.699   2.892
 7809SOL     OW25433   3.624   0.963   3.699
 7809SOL    HW125434   3.577   0.892   3.653
 7809SOL    HW225435   3.569   0.975   3.777
 7810SOL     OW25436   2.140   0.039   2.459
 7810SOL    HW125437   2.130   0.135   2.472
 7810SOL    HW225438   2.144   0.010   2.552
 7811SOL     OW25439   3.445   0.393   2.191
 7811SOL    HW125440   3.487   0.336   2.256
 7811SOL    HW225441   3.430   0.475   2.243
 7812SOL     OW25442   2.958   0.747   2.836
 7812SOL    HW125443   2.927   0.769   2.926
 7812SOL    HW225444   2.909   0.664   2.822
 7813SOL     OW25445   2.838   1.566   3.567
 7813SOL    HW125446   2.834   1.620   3.485
 7813SOL    HW225447   2.879   1.484   3.534
 7814SOL     OW25448   3.711   1.493   3.458
 7814SOL    HW125449   3.746   1.517   3.370
 7814SOL    HW225450   3.787   1.517   3.515
 7815SOL     OW25451   2.232   0.914   3.652
 7815SOL    HW125452   2.317   0.914   3.699
 7815SOL    HW225453   2.241   0.835   3.595
 7816SOL     OW25454   3.365   0.253   1.973
 7816SOL    HW125455   3.291   0.202   2.009
 7816SOL    HW225456   3.398   0.303   2.050
 7817SOL     OW25457   3.219   0.848   1.886
 7817SOL    HW125458   3.241   0.752   1.890
 7817SOL    HW225459   3.214   0.863   1.789
 7818SOL     OW25460   2.943   1.363   2.705
 7818SOL    HW125461   2.951   1.290   2.639
 7818SOL    HW225462   3.012   1.426   2.678
 7819SOL     OW25463   2.151   0.827   2.850
 7819SOL    HW125464   2.243   0.849   2.832
 7819SOL    HW225465   2.157   0.734   2.876
 7820SOL     OW25466   2.194   0.542   2.862
 7820SOL    HW125467   2.157   0.454   2.845
 7820SOL    HW225468   2.260   0.548   2.789
 7821SOL     OW25469   3.023   0.363   3.549
 7821SOL    HW125470   2.977   0.420   3.615
 7821SOL    HW225471   3.110   0.407   3.546
 7822SOL     OW25472   2.996   0.211   3.325
 7822SOL    HW125473   3.002   0.269   3.404
 7822SOL    HW225474   3.056   0.258   3.263
 7823SOL     OW25475   1.865   1.311   2.076
 7823SOL    HW125476   1.775   1.328   2.038
 7823SOL    HW225477   1.858   1.219   2.105
 7824SOL     OW25478   1.956   1.775   2.811
 7824SOL    HW125479   1.927   1.701   2.754
 7824SOL    HW225480   2.046   1.794   2.774
 7825SOL     OW25481   2.348   1.585   2.797
 7825SOL    HW125482   2.420   1.647   2.816
 7825SOL    HW225483   2.388   1.525   2.731
 7826SOL     OW25484   2.841   0.755   3.074
 7826SOL    HW125485   2.883   0.740   3.161
 7826SOL    HW225486   2.751   0.780   3.100
 7827SOL     OW25487   1.885   0.530   2.966
 7827SOL    HW125488   1.961   0.515   2.910
 7827SOL    HW225489   1.924   0.536   3.054
 7828SOL     OW25490   2.064   0.525   3.583
 7828SOL    HW125491   2.102   0.464   3.518
 7828SOL    HW225492   2.025   0.596   3.529
 7829SOL     OW25493   3.253   0.899   3.505
 7829SOL    HW125494   3.270   0.994   3.515
 7829SOL    HW225495   3.202   0.894   3.424
 7830SOL     OW25496   2.676   0.578   2.234
 7830SOL    HW125497   2.685   0.499   2.179
 7830SOL    HW225498   2.595   0.619   2.199
 7831SOL     OW25499   3.526   0.638   3.072
 7831SOL    HW125500   3.489   0.568   3.128
 7831SOL    HW225501   3.608   0.595   3.037
 7832SOL     OW25502   2.120   1.544   3.585
 7832SOL    HW125503   2.102   1.608   3.655
 7832SOL    HW225504   2.124   1.460   3.634
 7833SOL     OW25505   2.545   0.456   3.132
 7833SOL    HW125506   2.489   0.381   3.104
 7833SOL    HW225507   2.539   0.514   3.054
 7834SOL     OW25508   2.761   1.700   3.332
 7834SOL    HW125509   2.786   1.663   3.247
 7834SOL    HW225510   2.782   1.795   3.322
 7835SOL     OW25511   2.309   0.478   2.063
 7835SOL    HW125512   2.369   0.555   2.069
 7835SOL    HW225513   2.223   0.524   2.055
 7836SOL     OW25514   1.970   1.137   3.325
 7836SOL    HW125515   1.988   1.079   3.403
 7836SOL    HW225516   1.998   1.080   3.250
 7837SOL     OW25517   3.179   1.044   3.103
 7837SOL    HW125518   3.191   0.980   3.031
 7837SOL    HW225519   3.119   1.109   3.064
 7838SOL     OW25520   3.177   0.850   2.158
 7838SOL    HW125521   3.094   0.819   2.199
 7838SOL    HW225522   3.155   0.855   2.063
 7839SOL     OW25523   3.623   1.746   2.995
 7839SOL    HW125524   3.691   1.774   2.930
 7839SOL    HW225525   3.613   1.650   2.973
 7840SOL     OW25526   3.109   1.727   2.973
 7840SOL    HW125527   3.192   1.744   2.925
 7840SOL    HW225528   3.114   1.631   2.991
 7841SOL     OW25529   1.966   1.251   2.897
 7841SOL    HW125530   1.935   1.271   2.988
 7841SOL    HW225531   1.885   1.219   2.854
 7842SOL     OW25532   2.569   1.668   3.568
 7842SOL    HW125533   2.575   1.743   3.628
 7842SOL    HW225534   2.662   1.642   3.558
 7843SOL     OW25535   3.554   0.106   2.355
 7843SOL    HW125536   3.632   0.125   2.301
 7843SOL    HW225537   3.589   0.051   2.426
 7844SOL     OW25538   3.220   1.585   2.341
 7844SOL    HW125539   3.277   1.609   2.266
 7844SOL    HW225540   3.182   1.671   2.366
 7845SOL     OW25541   2.027   1.794   3.692
 7845SOL    HW125542   1.977   1.726   3.743
 7845SOL    HW225543   2.065   1.845   3.766
 7846SOL     OW25544   3.123   0.918   2.539
 7846SOL    HW125545   3.202   0.862   2.544
 7846SOL    HW225546   3.154   0.994   2.486
 7847SOL     OW25547   2.669   1.260   3.284
 7847SOL    HW125548   2.644   1.321   3.357
 7847SOL    HW225549   2.589   1.265   3.229
 7848SOL     OW25550   2.533   1.607   2.012
 7848SOL    HW125551   2.542   1.618   1.916
 7848SOL    HW225552   2.471   1.531   2.016
 7849SOL     OW25553   3.727   0.121   2.815
 7849SOL    HW125554   3.743   0.043   2.759
 7849SOL    HW225555   3.647   0.160   2.774
 7850SOL     OW25556   2.107   0.297   2.566
 7850SOL    HW125557   2.021   0.338   2.546
 7850SOL    HW225558   2.109   0.299   2.663
 7851SOL     OW25559   3.057   1.620   1.881
 7851SOL    HW125560   3.060   1.524   1.895
 7851SOL    HW225561   3.001   1.629   1.802
 7852SOL     OW25562   2.684   0.994   3.236
 7852SOL    HW125563   2.671   1.015   3.143
 7852SOL    HW225564   2.688   1.083   3.276
 7853SOL     OW25565   2.778   0.904   2.133
 7853SOL    HW125566   2.856   0.933   2.082
 7853SOL    HW225567   2.809   0.824   2.178
 7854SOL     OW25568   3.376   1.596   1.898
 7854SOL    HW125569   3.286   1.631   1.897
 7854SOL    HW225570   3.408   1.618   1.808
 7855SOL     OW25571   2.205   1.275   3.351
 7855SOL    HW125572   2.200   1.345   3.283
 7855SOL    HW225573   2.124   1.224   3.336
 7856SOL     OW25574   3.463   1.301   3.132
 7856SOL    HW125575   3.524   1.281   3.204
 7856SOL    HW225576   3.418   1.381   3.164
 7857SOL     OW25577   2.918   1.124   2.576
 7857SOL    HW125578   2.841   1.078   2.615
 7857SOL    HW225579   2.969   1.050   2.542
 7858SOL     OW25580   2.904   0.240   2.838
 7858SOL    HW125581   2.893   0.194   2.753
 7858SOL    HW225582   2.887   0.167   2.899
 7859SOL     OW25583   2.475   1.486   2.360
 7859SOL    HW125584   2.526   1.447   2.287
 7859SOL    HW225585   2.412   1.543   2.313
 7860SOL     OW25586   3.569   0.379   3.254
 7860SOL    HW125587   3.632   0.453   3.247
 7860SOL    HW225588   3.609   0.315   3.192
 7861SOL     OW25589   2.116   1.391   2.132
 7861SOL    HW125590   2.020   1.376   2.122
 7861SOL    HW225591   2.123   1.408   2.228
 7862SOL     OW25592   1.999   1.006   3.553
 7862SOL    HW125593   1.929   0.994   3.620
 7862SOL    HW225594   2.080   0.974   3.600
 7863SOL     OW25595   2.549   0.240   3.343
 7863SOL    HW125596   2.579   0.332   3.339
 7863SOL    HW225597   2.547   0.228   3.440
 7864SOL     OW25598   1.932   0.348   1.881
 7864SOL    HW125599   1.838   0.367   1.868
 7864SOL    HW225600   1.973   0.419   1.828
 7865SOL     OW25601   3.345   0.866   3.220
 7865SOL    HW125602   3.291   0.944   3.198
 7865SOL    HW225603   3.415   0.901   3.278
 7866SOL     OW25604   1.893   0.181   2.183
 7866SOL    HW125605   1.895   0.242   2.108
 7866SOL    HW225606   1.980   0.139   2.178
 7867SOL     OW25607   3.065   1.340   1.966
 7867SOL    HW125608   2.970   1.320   1.958
 7867SOL    HW225609   3.073   1.354   2.062
 7868SOL     OW25610   2.473   0.790   3.287
 7868SOL    HW125611   2.519   0.876   3.283
 7868SOL    HW225612   2.549   0.731   3.299
 7869SOL     OW25613   3.368   1.756   2.822
 7869SOL    HW125614   3.398   1.814   2.751
 7869SOL    HW225615   3.450   1.736   2.869
 7870SOL     OW25616   2.595   0.571   3.551
 7870SOL    HW125617   2.635   0.635   3.613
 7870SOL    HW225618   2.591   0.489   3.602
 7871SOL     OW25619   3.326   1.181   3.485
 7871SOL    HW125620   3.314   1.184   3.582
 7871SOL    HW225621   3.421   1.201   3.476
 7872SOL     OW25622   2.238   1.725   3.423
 7872SOL    HW125623   2.155   1.773   3.406
 7872SOL    HW225624   2.203   1.642   3.461
 7873SOL     OW25625   3.092   0.312   2.319
 7873SOL    HW125626   3.146   0.231   2.321
 7873SOL    HW225627   3.124   0.361   2.398
 7874SOL     OW25628   2.447   0.755   2.526
 7874SOL    HW125629   2.476   0.844   2.505
 7874SOL    HW225630   2.372   0.742   2.466
 7875SOL     OW25631   3.634   0.374   3.509
 7875SOL    HW125632   3.607   0.380   3.415
 7875SOL    HW225633   3.560   0.321   3.545
 7876SOL     OW25634   3.583   0.935   3.342
 7876SOL    HW125635   3.604   1.024   3.376
 7876SOL    HW225636   3.671   0.899   3.325
 7877SOL     OW25637   2.738   1.361   1.904
 7877SOL    HW125638   2.695   1.381   1.989
 7877SOL    HW225639   2.746   1.447   1.860
 7878SOL     OW25640   2.515   1.803   2.815
 7878SOL    HW125641   2.490   1.890   2.779
 7878SOL    HW225642   2.605   1.791   2.784
 7879SOL     OW25643   2.744   0.956   2.703
 7879SOL    HW125644   2.780   0.877   2.745
 7879SOL    HW225645   2.720   1.012   2.779
 7880SOL     OW25646   2.987   0.987   1.962
 7880SOL    HW125647   2.940   1.051   1.905
 7880SOL    HW225648   3.012   0.920   1.897
 7881SOL     OW25649   3.736   1.560   2.700
 7881SOL    HW125650   3.649   1.561   2.658
 7881SOL    HW225651   3.740   1.474   2.743
 7882SOL     OW25652   2.098   1.314   3.726
 7882SOL    HW125653   2.031   1.264   3.678
 7882SOL    HW225654   2.054   1.324   3.812
 7883SOL     OW25655   1.942   1.252   2.525
 7883SOL    HW125656   1.960   1.196   2.602
 7883SOL    HW225657   2.019   1.234   2.468
 7884SOL     OW25658   2.533   1.400   3.464
 7884SOL    HW125659   2.463   1.345   3.504
 7884SOL    HW225660   2.523   1.484   3.509
 7885SOL     OW25661   3.668   0.194   3.085
 7885SOL    HW125662   3.653   0.098   3.079
 7885SOL    HW225663   3.697   0.214   2.995
 7886SOL     OW25664   2.264   0.419   2.371
 7886SOL    HW125665   2.298   0.344   2.321
 7886SOL    HW225666   2.231   0.378   2.453
 7887SOL     OW25667   3.572   1.495   2.953
 7887SOL    HW125668   3.492   1.473   2.902
 7887SOL    HW225669   3.570   1.425   3.020
 7888SOL     OW25670   2.177   0.545   3.138
 7888SOL    HW125671   2.240   0.492   3.192
 7888SOL    HW225672   2.203   0.527   3.046
 7889SOL     OW25673   2.685   1.594   2.538
 7889SOL    HW125674   2.683   1.655   2.463
 7889SOL    HW225675   2.598   1.551   2.531
 7890SOL     OW25676   3.311   0.240   2.955
 7890SOL    HW125677   3.333   0.149   2.980
 7890SOL    HW225678   3.266   0.273   3.035
 7891SOL     OW25679   2.863   0.005   3.040
 7891SOL    HW125680   2.820  11.020   3.022
 7891SOL    HW225681   2.956  11.085   3.017
 7892SOL     OW25682   2.656   1.338   2.178
 7892SOL    HW125683   2.619   1.249   2.170
 7892SOL    HW225684   2.715   1.330   2.254
 7893SOL     OW25685   2.459   1.561   3.123
 7893SOL    HW125686   2.457   1.655   3.103
 7893SOL    HW225687   2.554   1.542   3.112
 7894SOL     OW25688   3.178   0.063   2.043
 7894SOL    HW125689   3.188  11.093   1.979
 7894SOL    HW225690   3.085   0.051   2.072
 7895SOL     OW25691   3.148   0.461   2.536
 7895SOL    HW125692   3.089   0.537   2.521
 7895SOL    HW225693   3.126   0.434   2.627
 7896SOL     OW25694   3.488   0.221   2.727
 7896SOL    HW125695   3.420   0.231   2.795
 7896SOL    HW225696   3.478   0.305   2.678
 7897SOL     OW25697   1.903   1.059   2.173
 7897SOL    HW125698   1.993   1.055   2.138
 7897SOL    HW225699   1.886   0.965   2.194
 7898SOL     OW25700   2.738   1.645   2.195
 7898SOL    HW125701   2.664   1.629   2.134
 7898SOL    HW225702   2.709   1.723   2.247
 7899SOL     OW25703   2.095   0.642   3.855
 7899SOL    HW125704   2.010   0.611   3.891
 7899SOL    HW225705   2.095   0.609   3.764
 7900SOL     OW25706   2.062   0.305   4.713
 7900SOL    HW125707   2.098   0.284   4.800
 7900SOL    HW225708   2.004   0.228   4.695
 7901SOL     OW25709   1.871   0.398   4.367
 7901SOL    HW125710   1.791   0.420   4.416
 7901SOL    HW225711   1.845   0.317   4.320
 7902SOL     OW25712   2.426   1.286   4.927
 7902SOL    HW125713   2.329   1.274   4.923
 7902SOL    HW225714   2.433   1.381   4.944
 7903SOL     OW25715   3.367   1.545   4.430
 7903SOL    HW125716   3.314   1.554   4.511
 7903SOL    HW225717   3.297   1.538   4.363
 7904SOL     OW25718   2.987   0.690   4.421
 7904SOL    HW125719   3.029   0.778   4.408
 7904SOL    HW225720   2.964   0.695   4.515
 7905SOL     OW25721   3.637   0.606   3.956
 7905SOL    HW125722   3.616   0.596   3.861
 7905SOL    HW225723   3.596   0.526   3.992
 7906SOL     OW25724   2.577   1.171   4.737
 7906SOL    HW125725   2.522   1.214   4.805
 7906SOL    HW225726   2.629   1.248   4.706
 7907SOL     OW25727   2.742   0.766   5.529
 7907SOL    HW125728   2.718   0.830   5.597
 7907SOL    HW225729   2.772   0.822   5.455
 7908SOL     OW25730   2.536   1.054   4.396
 7908SOL    HW125731   2.612   1.010   4.439
 7908SOL    HW225732   2.509   1.114   4.467
 7909SOL     OW25733   2.584   1.152   5.532
 7909SOL    HW125734   2.625   1.237   5.556
 7909SOL    HW225735   2.494   1.178   5.503
 7910SOL     OW25736   2.184   1.426   4.791
 7910SOL    HW125737   2.105   1.392   4.745
 7910SOL    HW225738   2.230   1.478   4.724
 7911SOL     OW25739   3.334   1.499   5.103
 7911SOL    HW125740   3.381   1.584   5.113
 7911SOL    HW225741   3.260   1.509   5.165
 7912SOL     OW25742   2.303   0.417   5.222
 7912SOL    HW125743   2.377   0.355   5.210
 7912SOL    HW225744   2.227   0.358   5.228
 7913SOL     OW25745   3.473   0.457   4.464
 7913SOL    HW125746   3.419   0.487   4.390
 7913SOL    HW225747   3.455   0.526   4.530
 7914SOL     OW25748   2.087   1.707   4.205
 7914SOL    HW125749   2.104   1.785   4.261
 7914SOL    HW225750   2.152   1.720   4.134
 7915SOL     OW25751   2.994   1.353   5.382
 7915SOL    HW125752   3.038   1.354   5.467
 7915SOL    HW225753   2.952   1.264   5.387
 7916SOL     OW25754   2.107   1.437   4.269
 7916SOL    HW125755   2.108   1.534   4.265
 7916SOL    HW225756   2.028   1.421   4.322
 7917SOL     OW25757   2.130   1.099   4.628
 7917SOL    HW125758   2.133   1.019   4.682
 7917SOL    HW225759   2.073   1.158   4.681
 7918SOL     OW25760   2.460   1.788   5.135
 7918SOL    HW125761   2.385   1.767   5.194
 7918SOL    HW225762   2.486   1.877   5.164
 7919SOL     OW25763   2.440   1.004   3.843
 7919SOL    HW125764   2.492   1.056   3.779
 7919SOL    HW225765   2.483   1.028   3.927
 7920SOL     OW25766   3.468   0.105   5.206
 7920SOL    HW125767   3.473   0.160   5.127
 7920SOL    HW225768   3.434   0.169   5.271
 7921SOL     OW25769   1.976   0.658   4.290
 7921SOL    HW125770   1.953   0.568   4.317
 7921SOL    HW225771   1.974   0.708   4.374
 7922SOL     OW25772   3.714   1.730   4.068
 7922SOL    HW125773   3.781   1.707   4.136
 7922SOL    HW225774   3.731   1.825   4.057
 7923SOL     OW25775   1.922   1.599   3.847
 7923SOL    HW125776   1.901   1.506   3.866
 7923SOL    HW225777   1.891   1.643   3.929
 7924SOL     OW25778   3.541   0.915   4.344
 7924SOL    HW125779   3.611   0.874   4.290
 7924SOL    HW225780   3.509   0.984   4.284
 7925SOL     OW25781   3.507   1.128   4.171
 7925SOL    HW125782   3.597   1.127   4.136
 7925SOL    HW225783   3.513   1.196   4.242
 7926SOL     OW25784   2.001   0.747   5.307
 7926SOL    HW125785   2.095   0.771   5.303
 7926SOL    HW225786   1.965   0.825   5.353
 7927SOL     OW25787   2.462   1.406   4.479
 7927SOL    HW125788   2.410   1.323   4.490
 7927SOL    HW225789   2.443   1.428   4.386
 7928SOL     OW25790   3.145   1.234   5.141
 7928SOL    HW125791   3.175   1.164   5.080
 7928SOL    HW225792   3.199   1.217   5.220
 7929SOL     OW25793   2.707   0.005   4.264
 7929SOL    HW125794   2.726   0.094   4.230
 7929SOL    HW225795   2.610  11.099   4.247
 7930SOL     OW25796   2.042   0.991   4.986
 7930SOL    HW125797   2.130   0.952   4.976
 7930SOL    HW225798   1.984   0.924   4.949
 7931SOL     OW25799   3.410   0.952   3.900
 7931SOL    HW125800   3.329   0.911   3.937
 7931SOL    HW225801   3.452   0.985   3.981
 7932SOL     OW25802   3.039   1.798   5.342
 7932SOL    HW125803   3.041   1.865   5.273
 7932SOL    HW225804   3.063   1.717   5.293
 7933SOL     OW25805   2.186   0.251   5.529
 7933SOL    HW125806   2.225   0.330   5.569
 7933SOL    HW225807   2.092   0.261   5.550
 7934SOL     OW25808   3.339   1.427   4.697
 7934SOL    HW125809   3.260   1.462   4.742
 7934SOL    HW225810   3.305   1.345   4.657
 7935SOL     OW25811   3.524   1.731   4.325
 7935SOL    HW125812   3.504   1.694   4.238
 7935SOL    HW225813   3.477   1.668   4.382
 7936SOL     OW25814   2.449   0.718   3.994
 7936SOL    HW125815   2.455   0.804   3.949
 7936SOL    HW225816   2.375   0.730   4.055
 7937SOL     OW25817   3.126   0.374   4.656
 7937SOL    HW125818   3.040   0.329   4.668
 7937SOL    HW225819   3.185   0.316   4.708
 7938SOL     OW25820   3.435   1.649   4.031
 7938SOL    HW125821   3.529   1.674   4.033
 7938SOL    HW225822   3.422   1.631   3.937
 7939SOL     OW25823   2.682   0.609   5.167
 7939SOL    HW125824   2.655   0.582   5.258
 7939SOL    HW225825   2.631   0.546   5.112
 7940SOL     OW25826   3.261   0.487   5.394
 7940SOL    HW125827   3.254   0.536   5.479
 7940SOL    HW225828   3.325   0.417   5.415
 7941SOL     OW25829   2.837   0.904   5.312
 7941SOL    HW125830   2.894   0.833   5.276
 7941SOL    HW225831   2.782   0.925   5.233
 7942SOL     OW25832   2.877   0.383   4.962
 7942SOL    HW125833   2.794   0.412   5.000
 7942SOL    HW225834   2.850   0.339   4.880
 7943SOL     OW25835   2.911   0.709   4.139
 7943SOL    HW125836   2.926   0.705   4.235
 7943SOL    HW225837   2.825   0.662   4.131
 7944SOL     OW25838   1.984   0.838   4.493
 7944SOL    HW125839   2.046   0.822   4.567
 7944SOL    HW225840   1.933   0.913   4.526
 7945SOL     OW25841   1.963   1.841   5.294
 7945SOL    HW125842   1.977   1.821   5.389
 7945SOL    HW225843   1.869   1.824   5.283
 7946SOL     OW25844   2.735   0.373   3.947
 7946SOL    HW125845   2.788   0.399   3.870
 7946SOL    HW225846   2.691   0.294   3.915
 7947SOL     OW25847   3.584   0.566   5.561
 7947SOL    HW125848   3.547   0.647   5.520
 7947SOL    HW225849   3.601   0.513   5.481
 7948SOL     OW25850   3.224   1.142   4.285
 7948SOL    HW125851   3.308   1.143   4.237
 7948SOL    HW225852   3.175   1.211   4.238
 7949SOL     OW25853   2.400   0.193   4.621
 7949SOL    HW125854   2.427   0.218   4.711
 7949SOL    HW225855   2.407   0.275   4.570
 7950SOL     OW25856   2.843   1.449   4.214
 7950SOL    HW125857   2.807   1.513   4.151
 7950SOL    HW225858   2.879   1.504   4.285
 7951SOL     OW25859   2.200   1.816   4.582
 7951SOL    HW125860   2.257   1.738   4.596
 7951SOL    HW225861   2.261   1.889   4.602
 7952SOL     OW25862   3.670   1.043   4.577
 7952SOL    HW125863   3.610   1.019   4.504
 7952SOL    HW225864   3.615   1.030   4.655
 7953SOL     OW25865   3.086   1.559   5.217
 7953SOL    HW125866   3.060   1.490   5.281
 7953SOL    HW225867   3.038   1.529   5.138
 7954SOL     OW25868   2.180   0.947   3.957
 7954SOL    HW125869   2.248   0.964   3.888
 7954SOL    HW225870   2.153   0.856   3.936
 7955SOL     OW25871   3.352   0.742   4.436
 7955SOL    HW125872   3.342   0.720   4.530
 7955SOL    HW225873   3.423   0.808   4.436
 7956SOL     OW25874   2.956   1.778   3.966
 7956SOL    HW125875   2.898   1.728   4.025
 7956SOL    HW225876   2.966   1.718   3.890
 7957SOL     OW25877   2.041   0.302   5.222
 7957SOL    HW125878   1.968   0.356   5.255
 7957SOL    HW225879   2.013   0.212   5.248
 7958SOL     OW25880   3.482   1.350   3.820
 7958SOL    HW125881   3.439   1.435   3.802
 7958SOL    HW225882   3.419   1.286   3.783
 7959SOL     OW25883   2.326   1.734   4.043
 7959SOL    HW125884   2.367   1.786   4.115
 7959SOL    HW225885   2.400   1.718   3.982
 7960SOL     OW25886   3.271   0.087   4.181
 7960SOL    HW125887   3.261   0.078   4.084
 7960SOL    HW225888   3.366   0.099   4.193
 7961SOL     OW25889   2.111   1.794   4.963
 7961SOL    HW125890   2.159   1.716   4.998
 7961SOL    HW225891   2.099   1.769   4.871
 7962SOL     OW25892   2.813   1.709   4.624
 7962SOL    HW125893   2.907   1.681   4.617
 7962SOL    HW225894   2.774   1.656   4.552
 7963SOL     OW25895   2.227   0.689   4.176
 7963SOL    HW125896   2.255   0.596   4.187
 7963SOL    HW225897   2.135   0.683   4.207
 7964SOL     OW25898   3.401   0.240   5.438
 7964SOL    HW125899   3.403   0.249   5.536
 7964SOL    HW225900   3.338   0.166   5.432
 7965SOL     OW25901   2.515   0.132   3.795
 7965SOL    HW125902   2.531   0.055   3.852
 7965SOL    HW225903   2.439   0.102   3.742
 7966SOL     OW25904   2.635   0.285   5.483
 7966SOL    HW125905   2.716   0.230   5.481
 7966SOL    HW225906   2.584   0.241   5.553
 7967SOL     OW25907   2.743   1.544   4.930
 7967SOL    HW125908   2.741   1.526   4.835
 7967SOL    HW225909   2.812   1.484   4.963
 7968SOL     OW25910   3.190   0.581   5.155
 7968SOL    HW125911   3.229   0.547   5.238
 7968SOL    HW225912   3.242   0.661   5.139
 7969SOL     OW25913   2.679   1.410   4.658
 7969SOL    HW125914   2.767   1.393   4.617
 7969SOL    HW225915   2.621   1.413   4.581
 7970SOL     OW25916   2.811   0.525   4.635
 7970SOL    HW125917   2.781   0.502   4.544
 7970SOL    HW225918   2.836   0.437   4.668
 7971SOL     OW25919   3.297   1.169   3.745
 7971SOL    HW125920   3.325   1.099   3.808
 7971SOL    HW225921   3.218   1.206   3.787
 7972SOL     OW25922   2.181   0.045   3.950
 7972SOL    HW125923   2.233   0.126   3.969
 7972SOL    HW225924   2.228  11.083   4.006
 7973SOL     OW25925   2.801   0.256   4.204
 7973SOL    HW125926   2.775   0.302   4.122
 7973SOL    HW225927   2.897   0.265   4.202
 7974SOL     OW25928   2.961   0.708   5.186
 7974SOL    HW125929   2.892   0.640   5.194
 7974SOL    HW225930   3.043   0.655   5.181
 7975SOL     OW25931   2.300   1.186   4.455
 7975SOL    HW125932   2.238   1.160   4.527
 7975SOL    HW225933   2.334   1.101   4.427
 7976SOL     OW25934   3.119   1.813   4.288
 7976SOL    HW125935   3.164   1.898   4.291
 7976SOL    HW225936   3.115   1.783   4.381
 7977SOL     OW25937   2.932   0.544   3.723
 7977SOL    HW125938   2.880   0.625   3.712
 7977SOL    HW225939   2.986   0.563   3.802
 7978SOL     OW25940   1.931   0.568   5.123
 7978SOL    HW125941   2.024   0.551   5.103
 7978SOL    HW225942   1.939   0.642   5.187
 7979SOL     OW25943   2.425   0.237   4.903
 7979SOL    HW125944   2.462   0.171   4.962
 7979SOL    HW225945   2.330   0.236   4.928
 7980SOL     OW25946   2.738   0.449   4.387
 7980SOL    HW125947   2.691   0.502   4.322
 7980SOL    HW225948   2.753   0.365   4.340
 7981SOL     OW25949   2.864   0.007   4.503
 7981SOL    HW125950   2.819   0.031   4.420
 7981SOL    HW225951   2.829  11.020   4.520
 7982SOL     OW25952   3.282   1.180   4.609
 7982SOL    HW125953   3.217   1.110   4.626
 7982SOL    HW225954   3.280   1.188   4.513
 7983SOL     OW25955   3.353   0.599   4.691
 7983SOL    HW125956   3.286   0.529   4.698
 7983SOL    HW225957   3.407   0.585   4.771
 7984SOL     OW25958   3.698   0.808   4.111
 7984SOL    HW125959   3.756   0.764   4.176
 7984SOL    HW225960   3.684   0.735   4.045
 7985SOL     OW25961   2.356   1.413   3.869
 7985SOL    HW125962   2.275   1.396   3.920
 7985SOL    HW225963   2.340   1.367   3.786
 7986SOL     OW25964   3.530   1.303   4.377
 7986SOL    HW125965   3.625   1.316   4.392
 7986SOL    HW225966   3.489   1.383   4.414
 7987SOL     OW25967   3.267   0.583   3.787
 7987SOL    HW125968   3.218   0.566   3.870
 7987SOL    HW225969   3.355   0.550   3.811
 7988SOL     OW25970   2.349   0.255   4.009
 7988SOL    HW125971   2.432   0.219   3.976
 7988SOL    HW225972   2.346   0.345   3.971
 7989SOL     OW25973   3.597   1.230   5.297
 7989SOL    HW125974   3.687   1.196   5.294
 7989SOL    HW225975   3.615   1.325   5.309
 7990SOL     OW25976   2.916   1.369   5.071
 7990SOL    HW125977   2.842   1.329   5.119
 7990SOL    HW225978   2.993   1.321   5.109
 7991SOL     OW25979   3.475   1.604   5.363
 7991SOL    HW125980   3.474   1.645   5.275
 7991SOL    HW225981   3.559   1.556   5.361
 7992SOL     OW25982   2.986   1.234   4.827
 7992SOL    HW125983   2.929   1.271   4.896
 7992SOL    HW225984   2.951   1.276   4.746
 7993SOL     OW25985   3.462   1.090   4.800
 7993SOL    HW125986   3.469   1.157   4.870
 7993SOL    HW225987   3.412   1.141   4.732
 7994SOL     OW25988   2.764   0.108   5.125
 7994SOL    HW125989   2.789   0.084   5.034
 7994SOL    HW225990   2.851   0.129   5.164
 7995SOL     OW25991   2.873   1.124   5.460
 7995SOL    HW125992   2.782   1.148   5.485
 7995SOL    HW225993   2.859   1.047   5.401
 7996SOL     OW25994   2.582   1.066   4.093
 7996SOL    HW125995   2.586   1.059   4.190
 7996SOL    HW225996   2.651   1.003   4.064
 7997SOL     OW25997   2.281   0.806   4.983
 7997SOL    HW125998   2.353   0.806   5.050
 7997SOL    HW225999   2.239   0.719   4.999
 7998SOL     OW26000   3.152   0.391   4.974
 7998SOL    HW126001   3.162   0.461   5.041
 7998SOL    HW226002   3.057   0.395   4.955
 7999SOL     OW26003   1.941   1.567   5.076
 7999SOL    HW126004   1.940   1.660   5.049
 7999SOL    HW226005   2.036   1.547   5.069
 8000SOL     OW26006   2.393   0.548   4.551
 8000SOL    HW126007   2.427   0.610   4.483
 8000SOL    HW226008   2.460   0.554   4.621
 8001SOL     OW26009   3.090   1.329   4.120
 8001SOL    HW126010   3.129   1.414   4.150
 8001SOL    HW226011   3.001   1.336   4.159
 8002SOL     OW26012   3.158   1.471   4.896
 8002SOL    HW126013   3.225   1.462   4.966
 8002SOL    HW226014   3.114   1.384   4.896
 8003SOL     OW26015   3.441   0.619   4.186
 8003SOL    HW126016   3.395   0.662   4.261
 8003SOL    HW226017   3.474   0.695   4.136
 8004SOL     OW26018   2.204   1.543   5.024
 8004SOL    HW126019   2.192   1.480   4.950
 8004SOL    HW226020   2.300   1.557   5.018
 8005SOL     OW26021   2.298   0.723   5.342
 8005SOL    HW126022   2.362   0.771   5.285
 8005SOL    HW226023   2.326   0.632   5.327
 8006SOL     OW26024   3.491   0.771   5.412
 8006SOL    HW126025   3.400   0.803   5.411
 8006SOL    HW226026   3.529   0.821   5.336
 8007SOL     OW26027   2.862   0.128   5.490
 8007SOL    HW126028   2.917   0.207   5.479
 8007SOL    HW226029   2.917   0.062   5.444
 8008SOL     OW26030   2.361   0.053   5.461
 8008SOL    HW126031   2.301  11.099   5.410
 8008SOL    HW226032   2.303   0.129   5.481
 8009SOL     OW26033   2.431   0.925   4.754
 8009SOL    HW126034   2.478   1.009   4.762
 8009SOL    HW226035   2.399   0.908   4.844
 8010SOL     OW26036   3.205   0.870   4.738
 8010SOL    HW126037   3.122   0.829   4.708
 8010SOL    HW226038   3.261   0.793   4.751
 8011SOL     OW26039   3.091   0.525   3.986
 8011SOL    HW126040   3.103   0.449   4.046
 8011SOL    HW226041   3.029   0.580   4.038
 8012SOL     OW26042   2.167   0.219   4.985
 8012SOL    HW126043   2.124   0.255   5.065
 8012SOL    HW226044   2.119   0.136   4.972
 8013SOL     OW26045   1.897   1.303   5.012
 8013SOL    HW126046   1.931   1.247   5.084
 8013SOL    HW226047   1.909   1.392   5.047
 8014SOL     OW26048   2.569   0.609   4.748
 8014SOL    HW126049   2.659   0.587   4.718
 8014SOL    HW226050   2.564   0.705   4.740
 8015SOL     OW26051   3.638   0.964   5.568
 8015SOL    HW126052   3.591   0.910   5.503
 8015SOL    HW226053   3.570   0.978   5.636
 8016SOL     OW26054   2.032   0.070   4.365
 8016SOL    HW126055   2.075   0.157   4.364
 8016SOL    HW226056   2.099   0.019   4.413
 8017SOL     OW26057   3.459   0.383   4.061
 8017SOL    HW126058   3.491   0.319   4.125
 8017SOL    HW226059   3.447   0.464   4.115
 8018SOL     OW26060   2.953   0.746   4.696
 8018SOL    HW126061   2.920   0.767   4.785
 8018SOL    HW226062   2.907   0.661   4.680
 8019SOL     OW26063   2.839   1.563   5.423
 8019SOL    HW126064   2.833   1.611   5.338
 8019SOL    HW226065   2.877   1.477   5.396
 8020SOL     OW26066   3.711   1.486   5.326
 8020SOL    HW126067   3.731   1.512   5.234
 8020SOL    HW226068   3.793   1.512   5.373
 8021SOL     OW26069   2.218   0.899   5.531
 8021SOL    HW126070   2.291   0.957   5.553
 8021SOL    HW226071   2.261   0.827   5.479
 8022SOL     OW26072   3.373   0.254   3.834
 8022SOL    HW126073   3.298   0.208   3.876
 8022SOL    HW226074   3.411   0.305   3.908
 8023SOL     OW26075   3.148   0.822   3.738
 8023SOL    HW126076   3.201   0.743   3.759
 8023SOL    HW226077   3.181   0.843   3.649
 8024SOL     OW26078   2.926   1.351   4.581
 8024SOL    HW126079   2.949   1.290   4.509
 8024SOL    HW226080   2.985   1.428   4.566
 8025SOL     OW26081   2.156   0.827   4.712
 8025SOL    HW126082   2.250   0.852   4.712
 8025SOL    HW226083   2.161   0.734   4.742
 8026SOL     OW26084   2.196   0.543   4.723
 8026SOL    HW126085   2.152   0.458   4.702
 8026SOL    HW226086   2.266   0.545   4.654
 8027SOL     OW26087   3.019   0.371   5.411
 8027SOL    HW126088   2.971   0.429   5.474
 8027SOL    HW226089   3.107   0.413   5.411
 8028SOL     OW26090   3.045   0.217   5.188
 8028SOL    HW126091   3.036   0.282   5.261
 8028SOL    HW226092   3.064   0.275   5.112
 8029SOL     OW26093   1.883   1.321   3.917
 8029SOL    HW126094   1.792   1.342   3.885
 8029SOL    HW226095   1.869   1.230   3.948
 8030SOL     OW26096   1.944   1.784   4.665
 8030SOL    HW126097   1.919   1.709   4.608
 8030SOL    HW226098   2.037   1.801   4.636
 8031SOL     OW26099   2.351   1.588   4.647
 8031SOL    HW126100   2.418   1.660   4.655
 8031SOL    HW226101   2.402   1.521   4.599
 8032SOL     OW26102   2.836   0.766   4.945
 8032SOL    HW126103   2.897   0.750   5.019
 8032SOL    HW226104   2.751   0.757   4.990
 8033SOL     OW26105   1.903   0.554   4.833
 8033SOL    HW126106   1.973   0.513   4.781
 8033SOL    HW226107   1.940   0.554   4.922
 8034SOL     OW26108   2.068   0.515   5.437
 8034SOL    HW126109   2.128   0.468   5.378
 8034SOL    HW226110   2.043   0.593   5.384
 8035SOL     OW26111   3.240   0.911   5.370
 8035SOL    HW126112   3.270   1.003   5.373
 8035SOL    HW226113   3.240   0.892   5.275
 8036SOL     OW26114   2.679   0.586   4.111
 8036SOL    HW126115   2.693   0.510   4.052
 8036SOL    HW226116   2.597   0.624   4.074
 8037SOL     OW26117   3.513   0.596   4.920
 8037SOL    HW126118   3.498   0.523   4.980
 8037SOL    HW226119   3.604   0.578   4.889
 8038SOL     OW26120   2.109   1.552   5.429
 8038SOL    HW126121   2.101   1.608   5.507
 8038SOL    HW226122   2.144   1.468   5.465
 8039SOL     OW26123   2.557   0.469   4.979
 8039SOL    HW126124   2.508   0.388   4.955
 8039SOL    HW226125   2.545   0.524   4.899
 8040SOL     OW26126   2.782   1.692   5.184
 8040SOL    HW126127   2.769   1.658   5.094
 8040SOL    HW226128   2.777   1.789   5.173
 8041SOL     OW26129   2.322   0.495   3.891
 8041SOL    HW126130   2.380   0.568   3.918
 8041SOL    HW226131   2.234   0.536   3.905
 8042SOL     OW26132   1.949   1.119   5.210
 8042SOL    HW126133   1.983   1.071   5.288
 8042SOL    HW226134   2.000   1.079   5.137
 8043SOL     OW26135   3.171   1.050   4.943
 8043SOL    HW126136   3.193   0.989   4.870
 8043SOL    HW226137   3.114   1.115   4.899
 8044SOL     OW26138   3.180   0.848   4.011
 8044SOL    HW126139   3.099   0.828   4.059
 8044SOL    HW226140   3.151   0.850   3.919
 8045SOL     OW26141   3.628   1.747   4.860
 8045SOL    HW126142   3.696   1.767   4.793
 8045SOL    HW226143   3.611   1.652   4.841
 8046SOL     OW26144   3.105   1.735   4.857
 8046SOL    HW126145   3.174   1.753   4.792
 8046SOL    HW226146   3.109   1.637   4.862
 8047SOL     OW26147   1.960   1.254   4.759
 8047SOL    HW126148   1.940   1.270   4.855
 8047SOL    HW226149   1.877   1.215   4.729
 8048SOL     OW26150   2.551   1.638   5.461
 8048SOL    HW126151   2.509   1.723   5.440
 8048SOL    HW226152   2.634   1.641   5.413
 8049SOL     OW26153   3.555   0.109   4.221
 8049SOL    HW126154   3.635   0.129   4.170
 8049SOL    HW226155   3.589   0.054   4.293
 8050SOL     OW26156   3.207   1.569   4.191
 8050SOL    HW126157   3.279   1.595   4.131
 8050SOL    HW226158   3.171   1.656   4.217
 8051SOL     OW26159   2.005   1.800   5.561
 8051SOL    HW126160   1.961   1.725   5.606
 8051SOL    HW226161   2.056   1.838   5.635
 8052SOL     OW26162   3.126   0.910   4.397
 8052SOL    HW126163   3.206   0.854   4.406
 8052SOL    HW226164   3.162   0.988   4.351
 8053SOL     OW26165   2.651   1.248   5.150
 8053SOL    HW126166   2.628   1.300   5.230
 8053SOL    HW226167   2.577   1.270   5.091
 8054SOL     OW26168   2.520   1.621   3.866
 8054SOL    HW126169   2.552   1.602   3.777
 8054SOL    HW226170   2.462   1.543   3.881
 8055SOL     OW26171   3.484   1.727   5.118
 8055SOL    HW126172   3.528   1.741   5.032
 8055SOL    HW226173   3.472   1.818   5.150
 8056SOL     OW26174   3.732   0.126   4.669
 8056SOL    HW126175   3.748   0.045   4.617
 8056SOL    HW226176   3.651   0.162   4.629
 8057SOL     OW26177   2.119   0.321   4.436
 8057SOL    HW126178   2.029   0.352   4.414
 8057SOL    HW226179   2.115   0.315   4.532
 8058SOL     OW26180   3.048   1.623   3.752
 8058SOL    HW126181   3.053   1.528   3.772
 8058SOL    HW226182   2.988   1.627   3.676
 8059SOL     OW26183   2.679   0.993   5.094
 8059SOL    HW126184   2.727   1.011   5.012
 8059SOL    HW226185   2.666   1.084   5.128
 8060SOL     OW26186   2.771   0.903   3.994
 8060SOL    HW126187   2.844   0.938   3.939
 8060SOL    HW226188   2.816   0.836   4.046
 8061SOL     OW26189   3.383   1.589   3.764
 8061SOL    HW126190   3.291   1.616   3.769
 8061SOL    HW226191   3.409   1.622   3.676
 8062SOL     OW26192   2.225   1.255   5.154
 8062SOL    HW126193   2.277   1.334   5.174
 8062SOL    HW226194   2.213   1.220   5.244
 8063SOL     OW26195   3.470   1.309   4.990
 8063SOL    HW126196   3.507   1.277   5.073
 8063SOL    HW226197   3.409   1.379   5.023
 8064SOL     OW26198   2.891   1.124   4.419
 8064SOL    HW126199   2.832   1.073   4.477
 8064SOL    HW226200   2.958   1.059   4.394
 8065SOL     OW26201   2.886   0.248   4.697
 8065SOL    HW126202   2.875   0.197   4.615
 8065SOL    HW226203   2.877   0.176   4.763
 8066SOL     OW26204   2.467   1.475   4.212
 8066SOL    HW126205   2.523   1.438   4.141
 8066SOL    HW226206   2.413   1.538   4.166
 8067SOL     OW26207   3.575   0.372   5.111
 8067SOL    HW126208   3.634   0.449   5.102
 8067SOL    HW226209   3.619   0.307   5.052
 8068SOL     OW26210   2.126   1.349   4.025
 8068SOL    HW126211   2.031   1.355   4.000
 8068SOL    HW226212   2.125   1.392   4.114
 8069SOL     OW26213   1.973   0.974   5.451
 8069SOL    HW126214   1.924   0.986   5.533
 8069SOL    HW226215   2.065   0.963   5.484
 8070SOL     OW26216   2.531   0.227   5.205
 8070SOL    HW126217   2.611   0.181   5.173
 8070SOL    HW226218   2.559   0.253   5.294
 8071SOL     OW26219   1.943   0.370   3.767
 8071SOL    HW126220   1.855   0.357   3.729
 8071SOL    HW226221   1.980   0.436   3.707
 8072SOL     OW26222   3.306   0.851   5.114
 8072SOL    HW126223   3.268   0.914   5.051
 8072SOL    HW226224   3.401   0.863   5.099
 8073SOL     OW26225   1.885   0.162   4.026
 8073SOL    HW126226   1.895   0.230   3.958
 8073SOL    HW226227   1.977   0.133   4.038
 8074SOL     OW26228   3.070   1.352   3.839
 8074SOL    HW126229   2.992   1.298   3.856
 8074SOL    HW226230   3.105   1.361   3.930
 8075SOL     OW26231   2.486   0.796   5.152
 8075SOL    HW126232   2.537   0.879   5.149
 8075SOL    HW226233   2.557   0.731   5.162
 8076SOL     OW26234   3.368   1.798   4.707
 8076SOL    HW126235   3.392   1.811   4.614
 8076SOL    HW226236   3.448   1.761   4.745
 8077SOL     OW26237   2.603   0.560   5.412
 8077SOL    HW126238   2.640   0.627   5.473
 8077SOL    HW226239   2.610   0.477   5.462
 8078SOL     OW26240   3.324   1.189   5.347
 8078SOL    HW126241   3.315   1.189   5.445
 8078SOL    HW226242   3.418   1.209   5.335
 8079SOL     OW26243   2.231   1.746   5.290
 8079SOL    HW126244   2.147   1.791   5.273
 8079SOL    HW226245   2.199   1.659   5.322
 8080SOL     OW26246   3.556   0.898   4.968
 8080SOL    HW126247   3.550   0.814   4.922
 8080SOL    HW226248   3.519   0.962   4.904
 8081SOL     OW26249   3.094   0.313   4.179
 8081SOL    HW126250   3.147   0.232   4.184
 8081SOL    HW226251   3.120   0.359   4.261
 8082SOL     OW26252   2.451   0.755   4.361
 8082SOL    HW126253   2.476   0.848   4.358
 8082SOL    HW226254   2.368   0.751   4.311
 8083SOL     OW26255   3.633   0.375   5.370
 8083SOL    HW126256   3.609   0.383   5.276
 8083SOL    HW226257   3.561   0.318   5.402
 8084SOL     OW26258   3.598   0.938   5.235
 8084SOL    HW126259   3.592   1.034   5.235
 8084SOL    HW226260   3.608   0.918   5.140
 8085SOL     OW26261   2.682   1.395   3.750
 8085SOL    HW126262   2.691   1.390   3.847
 8085SOL    HW226263   2.749   1.460   3.723
 8086SOL     OW26264   2.505   1.804   4.634
 8086SOL    HW126265   2.501   1.900   4.624
 8086SOL    HW226266   2.601   1.786   4.636
 8087SOL     OW26267   2.725   0.958   4.565
 8087SOL    HW126268   2.779   0.885   4.598
 8087SOL    HW226269   2.706   1.009   4.645
 8088SOL     OW26270   2.962   0.989   3.820
 8088SOL    HW126271   2.940   1.046   3.745
 8088SOL    HW226272   3.025   0.925   3.780
 8089SOL     OW26273   3.733   1.550   4.553
 8089SOL    HW126274   3.640   1.559   4.533
 8089SOL    HW226275   3.734   1.488   4.626
 8090SOL     OW26276   2.014   1.321   5.580
 8090SOL    HW126277   2.079   1.284   5.518
 8090SOL    HW226278   2.061   1.316   5.663
 8091SOL     OW26279   1.947   1.248   4.401
 8091SOL    HW126280   1.908   1.188   4.466
 8091SOL    HW226281   2.038   1.254   4.432
 8092SOL     OW26282   2.535   1.394   5.340
 8092SOL    HW126283   2.456   1.344   5.370
 8092SOL    HW226284   2.521   1.480   5.384
 8093SOL     OW26285   3.682   0.190   4.937
 8093SOL    HW126286   3.648   0.099   4.947
 8093SOL    HW226287   3.703   0.190   4.842
 8094SOL     OW26288   2.272   0.420   4.224
 8094SOL    HW126289   2.305   0.341   4.177
 8094SOL    HW226290   2.238   0.382   4.307
 8095SOL     OW26291   3.576   1.492   4.806
 8095SOL    HW126292   3.490   1.473   4.763
 8095SOL    HW226293   3.571   1.428   4.879
 8096SOL     OW26294   2.187   0.550   5.012
 8096SOL    HW126295   2.255   0.507   5.068
 8096SOL    HW226296   2.212   0.525   4.921
 8097SOL     OW26297   2.681   1.597   4.411
 8097SOL    HW126298   2.686   1.618   4.317
 8097SOL    HW226299   2.601   1.544   4.417
 8098SOL     OW26300   3.294   0.232   4.814
 8098SOL    HW126301   3.310   0.150   4.861
 8098SOL    HW226302   3.248   0.287   4.881
 8099SOL     OW26303   2.860   0.021   4.874
 8099SOL    HW126304   2.816  11.037   4.864
 8099SOL    HW226305   2.954  11.096   4.865
 8100SOL     OW26306   2.657   1.335   4.036
 8100SOL    HW126307   2.627   1.243   4.040
 8100SOL    HW226308   2.719   1.340   4.111
 8101SOL     OW26309   2.466   1.559   4.986
 8101SOL    HW126310   2.467   1.641   5.040
 8101SOL    HW226311   2.560   1.554   4.961
 8102SOL     OW26312   3.183   0.070   3.915
 8102SOL    HW126313   3.197  11.095   3.857
 8102SOL    HW226314   3.091   0.055   3.944
 8103SOL     OW26315   3.142   0.458   4.398
 8103SOL    HW126316   3.085   0.536   4.389
 8103SOL    HW226317   3.129   0.432   4.491
 8104SOL     OW26318   3.486   0.213   4.587
 8104SOL    HW126319   3.416   0.222   4.653
 8104SOL    HW226320   3.481   0.299   4.542
 8105SOL     OW26321   1.946   1.046   4.042
 8105SOL    HW126322   2.004   1.012   3.972
 8105SOL    HW226323   1.902   0.962   4.070
 8106SOL     OW26324   2.734   1.644   4.047
 8106SOL    HW126325   2.656   1.636   3.989
 8106SOL    HW226326   2.718   1.728   4.096
 8107SOL     OW26327   2.098   0.630   5.712
 8107SOL    HW126328   2.006   0.616   5.735
 8107SOL    HW226329   2.101   0.616   5.616
 8108SOL     OW26330   2.071   0.301   6.579
 8108SOL    HW126331   2.101   0.277   6.668
 8108SOL    HW226332   2.004   0.232   6.562
 8109SOL     OW26333   1.862   0.406   6.235
 8109SOL    HW126334   1.781   0.431   6.281
 8109SOL    HW226335   1.832   0.333   6.179
 8110SOL     OW26336   2.379   1.285   6.813
 8110SOL    HW126337   2.431   1.255   6.736
 8110SOL    HW226338   2.418   1.371   6.834
 8111SOL     OW26339   3.391   1.531   6.291
 8111SOL    HW126340   3.349   1.503   6.374
 8111SOL    HW226341   3.317   1.531   6.226
 8112SOL     OW26342   2.991   0.685   6.288
 8112SOL    HW126343   3.023   0.777   6.272
 8112SOL    HW226344   2.965   0.692   6.382
 8113SOL     OW26345   3.648   0.602   5.816
 8113SOL    HW126346   3.623   0.589   5.723
 8113SOL    HW226347   3.606   0.526   5.858
 8114SOL     OW26348   2.743   0.758   7.381
 8114SOL    HW126349   2.723   0.816   7.456
 8114SOL    HW226350   2.767   0.821   7.310
 8115SOL     OW26351   2.544   1.027   6.248
 8115SOL    HW126352   2.615   1.010   6.313
 8115SOL    HW226353   2.479   1.078   6.299
 8116SOL     OW26354   2.562   1.156   7.385
 8116SOL    HW126355   2.610   1.239   7.402
 8116SOL    HW226356   2.478   1.187   7.347
 8117SOL     OW26357   2.154   1.457   6.652
 8117SOL    HW126358   2.115   1.382   6.605
 8117SOL    HW226359   2.224   1.489   6.591
 8118SOL     OW26360   3.334   1.496   6.965
 8118SOL    HW126361   3.386   1.578   6.975
 8118SOL    HW226362   3.262   1.508   7.028
 8119SOL     OW26363   2.318   0.409   7.057
 8119SOL    HW126364   2.392   0.345   7.063
 8119SOL    HW226365   2.241   0.356   7.085
 8120SOL     OW26366   3.472   0.458   6.329
 8120SOL    HW126367   3.414   0.484   6.256
 8120SOL    HW226368   3.452   0.525   6.396
 8121SOL     OW26369   2.083   1.709   6.058
 8121SOL    HW126370   2.111   1.784   6.115
 8121SOL    HW226371   2.143   1.718   5.982
 8122SOL     OW26372   2.989   1.359   7.267
 8122SOL    HW126373   3.030   1.346   7.354
 8122SOL    HW226374   2.948   1.272   7.254
 8123SOL     OW26375   2.120   1.434   6.121
 8123SOL    HW126376   2.116   1.532   6.122
 8123SOL    HW226377   2.050   1.411   6.182
 8124SOL     OW26378   2.125   1.095   6.478
 8124SOL    HW126379   2.144   1.023   6.540
 8124SOL    HW226380   2.072   1.155   6.533
 8125SOL     OW26381   2.450   1.805   6.983
 8125SOL    HW126382   2.386   1.773   7.050
 8125SOL    HW226383   2.477   1.891   7.021
 8126SOL     OW26384   2.453   0.986   5.708
 8126SOL    HW126385   2.501   1.035   5.639
 8126SOL    HW226386   2.493   1.024   5.789
 8127SOL     OW26387   3.473   0.103   7.073
 8127SOL    HW126388   3.486   0.149   6.989
 8127SOL    HW226389   3.436   0.173   7.129
 8128SOL     OW26390   1.966   0.660   6.151
 8128SOL    HW126391   1.947   0.569   6.176
 8128SOL    HW226392   1.969   0.707   6.237
 8129SOL     OW26393   3.714   1.738   5.933
 8129SOL    HW126394   3.784   1.719   5.998
 8129SOL    HW226395   3.730   1.832   5.914
 8130SOL     OW26396   1.894   1.597   5.696
 8130SOL    HW126397   1.906   1.501   5.702
 8130SOL    HW226398   1.866   1.621   5.786
 8131SOL     OW26399   3.539   0.927   6.250
 8131SOL    HW126400   3.613   0.882   6.206
 8131SOL    HW226401   3.509   0.986   6.179
 8132SOL     OW26402   3.508   1.118   6.039
 8132SOL    HW126403   3.596   1.119   5.998
 8132SOL    HW226404   3.515   1.189   6.106
 8133SOL     OW26405   2.011   0.747   7.165
 8133SOL    HW126406   2.109   0.736   7.168
 8133SOL    HW226407   2.000   0.805   7.089
 8134SOL     OW26408   2.462   1.405   6.348
 8134SOL    HW126409   2.424   1.314   6.356
 8134SOL    HW226410   2.451   1.420   6.252
 8135SOL     OW26411   3.154   1.237   7.005
 8135SOL    HW126412   3.183   1.162   6.950
 8135SOL    HW226413   3.206   1.221   7.086
 8136SOL     OW26414   2.688   0.001   6.115
 8136SOL    HW126415   2.722   0.087   6.086
 8136SOL    HW226416   2.594   0.008   6.091
 8137SOL     OW26417   2.038   0.959   6.855
 8137SOL    HW126418   2.128   0.936   6.826
 8137SOL    HW226419   1.983   0.914   6.790
 8138SOL     OW26420   3.387   0.969   5.776
 8138SOL    HW126421   3.309   0.919   5.807
 8138SOL    HW226422   3.429   0.995   5.859
 8139SOL     OW26423   3.035   1.801   7.201
 8139SOL    HW126424   3.041   1.863   7.128
 8139SOL    HW226425   3.062   1.718   7.159
 8140SOL     OW26426   2.208   0.245   7.449
 8140SOL    HW126427   2.236   0.331   7.482
 8140SOL    HW226428   2.111   0.252   7.451
 8141SOL     OW26429   3.330   1.429   6.549
 8141SOL    HW126430   3.268   1.448   6.622
 8141SOL    HW226431   3.299   1.342   6.518
 8142SOL     OW26432   3.529   1.731   6.185
 8142SOL    HW126433   3.515   1.694   6.097
 8142SOL    HW226434   3.492   1.659   6.241
 8143SOL     OW26435   2.446   0.712   5.856
 8143SOL    HW126436   2.452   0.799   5.813
 8143SOL    HW226437   2.374   0.725   5.920
 8144SOL     OW26438   3.128   0.370   6.507
 8144SOL    HW126439   3.041   0.329   6.526
 8144SOL    HW226440   3.187   0.320   6.567
 8145SOL     OW26441   3.441   1.640   5.889
 8145SOL    HW126442   3.533   1.667   5.895
 8145SOL    HW226443   3.430   1.638   5.792
 8146SOL     OW26444   2.682   0.605   7.037
 8146SOL    HW126445   2.646   0.583   7.125
 8146SOL    HW226446   2.632   0.545   6.979
 8147SOL     OW26447   3.256   0.484   7.254
 8147SOL    HW126448   3.257   0.539   7.335
 8147SOL    HW226449   3.321   0.415   7.274
 8148SOL     OW26450   2.829   0.922   7.172
 8148SOL    HW126451   2.886   0.847   7.144
 8148SOL    HW226452   2.778   0.937   7.090
 8149SOL     OW26453   2.866   0.389   6.820
 8149SOL    HW126454   2.801   0.437   6.873
 8149SOL    HW226455   2.814   0.360   6.743
 8150SOL     OW26456   2.911   0.695   6.006
 8150SOL    HW126457   2.931   0.696   6.101
 8150SOL    HW226458   2.826   0.647   6.004
 8151SOL     OW26459   1.965   0.836   6.379
 8151SOL    HW126460   2.039   0.834   6.442
 8151SOL    HW226461   1.917   0.915   6.407
 8152SOL     OW26462   1.961   1.837   7.146
 8152SOL    HW126463   1.970   1.816   7.242
 8152SOL    HW226464   1.865   1.846   7.136
 8153SOL     OW26465   2.738   0.346   5.812
 8153SOL    HW126466   2.778   0.400   5.742
 8153SOL    HW226467   2.719   0.265   5.764
 8154SOL     OW26468   3.571   0.567   7.421
 8154SOL    HW126469   3.536   0.650   7.383
 8154SOL    HW226470   3.591   0.516   7.340
 8155SOL     OW26471   3.223   1.145   6.140
 8155SOL    HW126472   3.307   1.141   6.092
 8155SOL    HW226473   3.174   1.210   6.087
 8156SOL     OW26474   2.397   0.199   6.470
 8156SOL    HW126475   2.417   0.214   6.564
 8156SOL    HW226476   2.404   0.286   6.430
 8157SOL     OW26477   2.858   1.453   6.067
 8157SOL    HW126478   2.821   1.521   6.008
 8157SOL    HW226479   2.855   1.496   6.154
 8158SOL     OW26480   2.208   1.803   6.454
 8158SOL    HW126481   2.247   1.713   6.464
 8158SOL    HW226482   2.285   1.858   6.473
 8159SOL     OW26483   3.673   1.042   6.458
 8159SOL    HW126484   3.623   1.016   6.379
 8159SOL    HW226485   3.605   1.035   6.527
 8160SOL     OW26486   3.087   1.559   7.083
 8160SOL    HW126487   3.064   1.496   7.153
 8160SOL    HW226488   3.038   1.521   7.008
 8161SOL     OW26489   2.162   0.953   5.835
 8161SOL    HW126490   2.246   0.973   5.791
 8161SOL    HW226491   2.141   0.865   5.800
 8162SOL     OW26492   3.342   0.745   6.299
 8162SOL    HW126493   3.331   0.706   6.387
 8162SOL    HW226494   3.412   0.811   6.313
 8163SOL     OW26495   2.321   1.264   7.298
 8163SOL    HW126496   2.274   1.279   7.213
 8163SOL    HW226497   2.247   1.274   7.361
 8164SOL     OW26498   2.963   1.770   5.827
 8164SOL    HW126499   2.890   1.721   5.870
 8164SOL    HW226500   2.972   1.723   5.742
 8165SOL     OW26501   2.051   0.321   7.107
 8165SOL    HW126502   1.960   0.350   7.107
 8165SOL    HW226503   2.036   0.223   7.108
 8166SOL     OW26504   3.485   1.364   5.684
 8166SOL    HW126505   3.447   1.449   5.656
 8166SOL    HW226506   3.421   1.299   5.648
 8167SOL     OW26507   2.319   1.741   5.899
 8167SOL    HW126508   2.371   1.783   5.970
 8167SOL    HW226509   2.387   1.703   5.842
 8168SOL     OW26510   3.267   0.080   6.032
 8168SOL    HW126511   3.262   0.070   5.935
 8168SOL    HW226512   3.360   0.102   6.048
 8169SOL     OW26513   2.111   1.796   6.819
 8169SOL    HW126514   2.168   1.741   6.874
 8169SOL    HW226515   2.106   1.744   6.737
 8170SOL     OW26516   2.823   1.711   6.465
 8170SOL    HW126517   2.875   1.642   6.508
 8170SOL    HW226518   2.773   1.658   6.399
 8171SOL     OW26519   2.222   0.682   6.030
 8171SOL    HW126520   2.245   0.587   6.045
 8171SOL    HW226521   2.134   0.687   6.070
 8172SOL     OW26522   3.408   0.243   7.302
 8172SOL    HW126523   3.412   0.253   7.400
 8172SOL    HW226524   3.348   0.168   7.297
 8173SOL     OW26525   2.500   0.125   5.671
 8173SOL    HW126526   2.522   0.039   5.711
 8173SOL    HW226527   2.447   0.099   5.594
 8174SOL     OW26528   2.630   0.293   7.346
 8174SOL    HW126529   2.712   0.241   7.343
 8174SOL    HW226530   2.579   0.244   7.413
 8175SOL     OW26531   2.741   1.555   6.775
 8175SOL    HW126532   2.733   1.525   6.683
 8175SOL    HW226533   2.790   1.482   6.816
 8176SOL     OW26534   3.180   0.587   7.015
 8176SOL    HW126535   3.224   0.550   7.094
 8176SOL    HW226536   3.230   0.670   7.001
 8177SOL     OW26537   2.686   1.455   6.511
 8177SOL    HW126538   2.766   1.410   6.481
 8177SOL    HW226539   2.617   1.408   6.462
 8178SOL     OW26540   2.818   0.526   6.498
 8178SOL    HW126541   2.784   0.507   6.407
 8178SOL    HW226542   2.847   0.437   6.525
 8179SOL     OW26543   2.407   0.042   6.083
 8179SOL    HW126544   2.322   0.036   6.129
 8179SOL    HW226545   2.392   0.117   6.023
 8180SOL     OW26546   3.298   1.171   5.609
 8180SOL    HW126547   3.323   1.099   5.671
 8180SOL    HW226548   3.212   1.200   5.643
 8181SOL     OW26549   2.160   0.043   5.801
 8181SOL    HW126550   2.220   0.119   5.792
 8181SOL    HW226551   2.220  11.073   5.822
 8182SOL     OW26552   2.793   0.256   6.073
 8182SOL    HW126553   2.767   0.295   5.987
 8182SOL    HW226554   2.890   0.258   6.065
 8183SOL     OW26555   2.948   0.715   7.061
 8183SOL    HW126556   2.881   0.645   7.059
 8183SOL    HW226557   3.031   0.664   7.047
 8184SOL     OW26558   3.105   1.560   6.352
 8184SOL    HW126559   3.092   1.624   6.280
 8184SOL    HW226560   3.157   1.610   6.415
 8185SOL     OW26561   2.327   1.177   6.320
 8185SOL    HW126562   2.253   1.143   6.375
 8185SOL    HW226563   2.297   1.151   6.231
 8186SOL     OW26564   3.118   1.803   6.182
 8186SOL    HW126565   3.172   1.864   6.127
 8186SOL    HW226566   3.076   1.863   6.245
 8187SOL     OW26567   2.917   0.554   5.582
 8187SOL    HW126568   2.862   0.633   5.566
 8187SOL    HW226569   2.980   0.585   5.648
 8188SOL     OW26570   1.930   0.569   6.979
 8188SOL    HW126571   2.023   0.551   6.955
 8188SOL    HW226572   1.940   0.627   7.056
 8189SOL     OW26573   2.416   0.222   6.755
 8189SOL    HW126574   2.459   0.174   6.826
 8189SOL    HW226575   2.323   0.222   6.784
 8190SOL     OW26576   2.741   0.449   6.256
 8190SOL    HW126577   2.697   0.501   6.187
 8190SOL    HW226578   2.760   0.366   6.209
 8191SOL     OW26579   2.848   0.008   6.360
 8191SOL    HW126580   2.800   0.037   6.281
 8191SOL    HW226581   2.809  11.022   6.375
 8192SOL     OW26582   3.279   1.173   6.471
 8192SOL    HW126583   3.230   1.093   6.495
 8192SOL    HW226584   3.280   1.167   6.374
 8193SOL     OW26585   3.358   0.606   6.546
 8193SOL    HW126586   3.295   0.533   6.558
 8193SOL    HW226587   3.410   0.603   6.629
 8194SOL     OW26588   3.695   0.807   5.977
 8194SOL    HW126589   3.757   0.764   6.039
 8194SOL    HW226590   3.685   0.736   5.910
 8195SOL     OW26591   2.348   1.420   5.716
 8195SOL    HW126592   2.263   1.411   5.761
 8195SOL    HW226593   2.338   1.361   5.639
 8196SOL     OW26594   3.527   1.294   6.244
 8196SOL    HW126595   3.622   1.311   6.252
 8196SOL    HW226596   3.487   1.381   6.262
 8197SOL     OW26597   3.252   0.597   5.644
 8197SOL    HW126598   3.203   0.569   5.724
 8197SOL    HW226599   3.341   0.567   5.664
 8198SOL     OW26600   2.372   0.244   5.890
 8198SOL    HW126601   2.434   0.215   5.821
 8198SOL    HW226602   2.343   0.331   5.853
 8199SOL     OW26603   3.590   1.230   7.159
 8199SOL    HW126604   3.681   1.196   7.155
 8199SOL    HW226605   3.608   1.325   7.172
 8200SOL     OW26606   2.930   1.387   6.943
 8200SOL    HW126607   2.852   1.334   6.968
 8200SOL    HW226608   3.003   1.324   6.961
 8201SOL     OW26609   3.475   1.609   7.225
 8201SOL    HW126610   3.475   1.646   7.135
 8201SOL    HW226611   3.558   1.558   7.224
 8202SOL     OW26612   2.985   1.237   6.692
 8202SOL    HW126613   2.894   1.211   6.717
 8202SOL    HW226614   2.972   1.267   6.601
 8203SOL     OW26615   3.463   1.091   6.657
 8203SOL    HW126616   3.469   1.156   6.729
 8203SOL    HW226617   3.411   1.141   6.591
 8204SOL     OW26618   2.765   0.108   6.981
 8204SOL    HW126619   2.793   0.079   6.893
 8204SOL    HW226620   2.849   0.136   7.020
 8205SOL     OW26621   2.869   1.122   7.341
 8205SOL    HW126622   2.778   1.155   7.352
 8205SOL    HW226623   2.858   1.052   7.274
 8206SOL     OW26624   2.581   1.074   5.937
 8206SOL    HW126625   2.559   1.050   6.028
 8206SOL    HW226626   2.651   1.010   5.914
 8207SOL     OW26627   2.277   0.800   6.858
 8207SOL    HW126628   2.355   0.793   6.918
 8207SOL    HW226629   2.240   0.709   6.862
 8208SOL     OW26630   3.144   0.386   6.844
 8208SOL    HW126631   3.154   0.460   6.907
 8208SOL    HW226632   3.050   0.394   6.818
 8209SOL     OW26633   1.932   1.566   6.924
 8209SOL    HW126634   1.932   1.659   6.897
 8209SOL    HW226635   2.027   1.543   6.915
 8210SOL     OW26636   2.222   1.107   6.079
 8210SOL    HW126637   2.239   1.176   6.015
 8210SOL    HW226638   2.205   1.030   6.022
 8211SOL     OW26639   2.396   0.555   6.416
 8211SOL    HW126640   2.427   0.623   6.352
 8211SOL    HW226641   2.459   0.566   6.489
 8212SOL     OW26642   3.092   1.333   5.975
 8212SOL    HW126643   3.134   1.409   6.019
 8212SOL    HW226644   3.000   1.344   6.004
 8213SOL     OW26645   3.154   1.469   6.755
 8213SOL    HW126646   3.202   1.457   6.838
 8213SOL    HW226647   3.088   1.398   6.758
 8214SOL     OW26648   3.448   0.625   6.052
 8214SOL    HW126649   3.398   0.671   6.121
 8214SOL    HW226650   3.479   0.698   5.996
 8215SOL     OW26651   2.199   1.514   6.900
 8215SOL    HW126652   2.187   1.479   6.809
 8215SOL    HW226653   2.294   1.536   6.897
 8216SOL     OW26654   2.290   0.732   7.203
 8216SOL    HW126655   2.354   0.776   7.145
 8216SOL    HW226656   2.326   0.642   7.204
 8217SOL     OW26657   3.485   0.776   7.277
 8217SOL    HW126658   3.395   0.813   7.276
 8217SOL    HW226659   3.525   0.823   7.201
 8218SOL     OW26660   2.863   0.149   7.353
 8218SOL    HW126661   2.924   0.222   7.337
 8218SOL    HW226662   2.915   0.074   7.320
 8219SOL     OW26663   2.353   0.053   7.318
 8219SOL    HW126664   2.285  11.100   7.277
 8219SOL    HW226665   2.300   0.126   7.355
 8220SOL     OW26666   2.417   0.901   6.626
 8220SOL    HW126667   2.478   0.976   6.631
 8220SOL    HW226668   2.388   0.892   6.718
 8221SOL     OW26669   3.209   0.881   6.595
 8221SOL    HW126670   3.128   0.833   6.571
 8221SOL    HW226671   3.271   0.809   6.605
 8222SOL     OW26672   3.093   0.515   5.853
 8222SOL    HW126673   3.096   0.436   5.911
 8222SOL    HW226674   3.034   0.573   5.902
 8223SOL     OW26675   2.160   0.205   6.848
 8223SOL    HW126676   2.122   0.241   6.930
 8223SOL    HW226677   2.115   0.119   6.844
 8224SOL     OW26678   1.910   1.293   6.884
 8224SOL    HW126679   1.903   1.263   6.975
 8224SOL    HW226680   1.912   1.390   6.893
 8225SOL     OW26681   2.577   0.607   6.612
 8225SOL    HW126682   2.669   0.591   6.582
 8225SOL    HW226683   2.567   0.703   6.604
 8226SOL     OW26684   3.633   0.966   7.438
 8226SOL    HW126685   3.589   0.910   7.372
 8226SOL    HW226686   3.566   0.970   7.508
 8227SOL     OW26687   2.159   0.039   6.198
 8227SOL    HW126688   2.137   0.134   6.213
 8227SOL    HW226689   2.168   0.010   6.290
 8228SOL     OW26690   3.452   0.393   5.915
 8228SOL    HW126691   3.485   0.328   5.978
 8228SOL    HW226692   3.442   0.472   5.971
 8229SOL     OW26693   2.952   0.748   6.551
 8229SOL    HW126694   2.927   0.771   6.643
 8229SOL    HW226695   2.908   0.661   6.542
 8230SOL     OW26696   2.829   1.572   7.286
 8230SOL    HW126697   2.825   1.627   7.204
 8230SOL    HW226698   2.864   1.487   7.252
 8231SOL     OW26699   3.710   1.486   7.185
 8231SOL    HW126700   3.732   1.511   7.093
 8231SOL    HW226701   3.789   1.516   7.233
 8232SOL     OW26702   2.188   0.920   7.369
 8232SOL    HW126703   2.262   0.944   7.427
 8232SOL    HW226704   2.227   0.848   7.316
 8233SOL     OW26705   3.361   0.258   5.698
 8233SOL    HW126706   3.290   0.203   5.736
 8233SOL    HW226707   3.393   0.310   5.774
 8234SOL     OW26708   3.135   0.834   5.601
 8234SOL    HW126709   3.182   0.749   5.611
 8234SOL    HW226710   3.169   0.864   5.514
 8235SOL     OW26711   2.934   1.365   6.436
 8235SOL    HW126712   2.949   1.288   6.377
 8235SOL    HW226713   3.000   1.429   6.405
 8236SOL     OW26714   2.149   0.823   6.587
 8236SOL    HW126715   2.245   0.841   6.578
 8236SOL    HW226716   2.150   0.727   6.600
 8237SOL     OW26717   2.192   0.542   6.582
 8237SOL    HW126718   2.152   0.455   6.562
 8237SOL    HW226719   2.261   0.547   6.512
 8238SOL     OW26720   3.007   0.383   7.261
 8238SOL    HW126721   2.969   0.432   7.337
 8238SOL    HW226722   3.097   0.419   7.260
 8239SOL     OW26723   3.017   0.219   7.047
 8239SOL    HW126724   3.009   0.287   7.116
 8239SOL    HW226725   3.049   0.271   6.971
 8240SOL     OW26726   1.854   1.335   5.821
 8240SOL    HW126727   1.771   1.352   5.771
 8240SOL    HW226728   1.858   1.238   5.820
 8241SOL     OW26729   1.955   1.783   6.533
 8241SOL    HW126730   1.930   1.717   6.466
 8241SOL    HW226731   2.050   1.796   6.511
 8242SOL     OW26732   2.342   1.574   6.510
 8242SOL    HW126733   2.412   1.635   6.537
 8242SOL    HW226734   2.390   1.508   6.456
 8243SOL     OW26735   2.865   0.775   6.800
 8243SOL    HW126736   2.895   0.752   6.890
 8243SOL    HW226737   2.788   0.831   6.817
 8244SOL     OW26738   1.898   0.548   6.688
 8244SOL    HW126739   1.970   0.513   6.635
 8244SOL    HW226740   1.935   0.545   6.777
 8245SOL     OW26741   2.072   0.506   7.317
 8245SOL    HW126742   2.090   0.439   7.248
 8245SOL    HW226743   2.012   0.566   7.271
 8246SOL     OW26744   3.255   0.912   7.246
 8246SOL    HW126745   3.274   1.007   7.243
 8246SOL    HW226746   3.236   0.893   7.152
 8247SOL     OW26747   2.671   0.577   5.966
 8247SOL    HW126748   2.680   0.501   5.908
 8247SOL    HW226749   2.594   0.624   5.930
 8248SOL     OW26750   3.505   0.615   6.769
 8248SOL    HW126751   3.485   0.547   6.835
 8248SOL    HW226752   3.595   0.590   6.740
 8249SOL     OW26753   2.112   1.531   7.303
 8249SOL    HW126754   2.106   1.604   7.367
 8249SOL    HW226755   2.125   1.453   7.360
 8250SOL     OW26756   2.555   0.465   6.848
 8250SOL    HW126757   2.499   0.390   6.821
 8250SOL    HW226758   2.550   0.522   6.769
 8251SOL     OW26759   2.786   1.706   7.060
 8251SOL    HW126760   2.784   1.665   6.973
 8251SOL    HW226761   2.781   1.801   7.041
 8252SOL     OW26762   2.305   0.477   5.777
 8252SOL    HW126763   2.368   0.550   5.789
 8252SOL    HW226764   2.222   0.528   5.768
 8253SOL     OW26765   2.016   1.061   7.097
 8253SOL    HW126766   2.112   1.069   7.106
 8253SOL    HW226767   2.009   1.033   7.003
 8254SOL     OW26768   3.181   1.038   6.822
 8254SOL    HW126769   3.196   0.989   6.738
 8254SOL    HW226770   3.114   1.102   6.793
 8255SOL     OW26771   3.165   0.849   5.883
 8255SOL    HW126772   3.082   0.829   5.929
 8255SOL    HW226773   3.140   0.851   5.790
 8256SOL     OW26774   3.619   1.749   6.717
 8256SOL    HW126775   3.693   1.771   6.657
 8256SOL    HW226776   3.608   1.653   6.699
 8257SOL     OW26777   3.105   1.728   6.699
 8257SOL    HW126778   3.192   1.749   6.662
 8257SOL    HW226779   3.114   1.632   6.716
 8258SOL     OW26780   1.962   1.238   6.625
 8258SOL    HW126781   1.937   1.259   6.717
 8258SOL    HW226782   1.879   1.205   6.588
 8259SOL     OW26783   2.555   1.632   7.327
 8259SOL    HW126784   2.527   1.721   7.300
 8259SOL    HW226785   2.649   1.631   7.298
 8260SOL     OW26786   3.556   0.107   6.078
 8260SOL    HW126787   3.634   0.126   6.023
 8260SOL    HW226788   3.591   0.052   6.149
 8261SOL     OW26789   3.227   1.579   6.066
 8261SOL    HW126790   3.284   1.600   5.990
 8261SOL    HW226791   3.183   1.664   6.085
 8262SOL     OW26792   2.021   1.794   7.407
 8262SOL    HW126793   1.976   1.725   7.460
 8262SOL    HW226794   2.064   1.846   7.475
 8263SOL     OW26795   3.122   0.913   6.256
 8263SOL    HW126796   3.201   0.859   6.272
 8263SOL    HW226797   3.160   0.989   6.207
 8264SOL     OW26798   2.690   1.265   7.018
 8264SOL    HW126799   2.646   1.314   7.090
 8264SOL    HW226800   2.626   1.272   6.946
 8265SOL     OW26801   2.528   1.616   5.738
 8265SOL    HW126802   2.541   1.625   5.642
 8265SOL    HW226803   2.467   1.538   5.740
 8266SOL     OW26804   3.485   1.718   6.975
 8266SOL    HW126805   3.532   1.732   6.891
 8266SOL    HW226806   3.471   1.809   7.006
 8267SOL     OW26807   3.735   0.126   6.534
 8267SOL    HW126808   3.751   0.046   6.480
 8267SOL    HW226809   3.653   0.161   6.495
 8268SOL     OW26810   2.103   0.293   6.287
 8268SOL    HW126811   2.018   0.338   6.275
 8268SOL    HW226812   2.112   0.292   6.384
 8269SOL     OW26813   3.051   1.630   5.610
 8269SOL    HW126814   3.057   1.534   5.628
 8269SOL    HW226815   3.001   1.633   5.526
 8270SOL     OW26816   2.673   0.991   6.962
 8270SOL    HW126817   2.659   1.022   6.869
 8270SOL    HW226818   2.687   1.078   7.004
 8271SOL     OW26819   2.764   0.903   5.849
 8271SOL    HW126820   2.839   0.940   5.797
 8271SOL    HW226821   2.806   0.831   5.899
 8272SOL     OW26822   3.418   1.629   5.623
 8272SOL    HW126823   3.322   1.641   5.618
 8272SOL    HW226824   3.442   1.630   5.527
 8273SOL     OW26825   2.188   1.285   7.066
 8273SOL    HW126826   2.216   1.346   6.996
 8273SOL    HW226827   2.121   1.234   7.021
 8274SOL     OW26828   3.467   1.307   6.844
 8274SOL    HW126829   3.508   1.276   6.926
 8274SOL    HW226830   3.407   1.376   6.879
 8275SOL     OW26831   2.921   1.122   6.308
 8275SOL    HW126832   2.844   1.073   6.343
 8275SOL    HW226833   2.979   1.051   6.281
 8276SOL     OW26834   2.886   0.251   6.560
 8276SOL    HW126835   2.871   0.194   6.483
 8276SOL    HW226836   2.880   0.187   6.632
 8277SOL     OW26837   2.478   1.493   6.082
 8277SOL    HW126838   2.523   1.442   6.012
 8277SOL    HW226839   2.403   1.530   6.034
 8278SOL     OW26840   3.571   0.376   6.971
 8278SOL    HW126841   3.629   0.454   6.963
 8278SOL    HW226842   3.618   0.312   6.914
 8279SOL     OW26843   2.110   1.390   5.855
 8279SOL    HW126844   2.013   1.381   5.849
 8279SOL    HW226845   2.121   1.409   5.951
 8280SOL     OW26846   2.531   0.224   7.074
 8280SOL    HW126847   2.608   0.178   7.034
 8280SOL    HW226848   2.566   0.252   7.160
 8281SOL     OW26849   1.937   0.358   5.622
 8281SOL    HW126850   1.849   0.361   5.583
 8281SOL    HW226851   1.983   0.423   5.566
 8282SOL     OW26852   3.304   0.851   6.979
 8282SOL    HW126853   3.264   0.915   6.918
 8282SOL    HW226854   3.398   0.871   6.971
 8283SOL     OW26855   1.891   0.168   5.894
 8283SOL    HW126856   1.892   0.238   5.827
 8283SOL    HW226857   1.980   0.131   5.886
 8284SOL     OW26858   3.051   1.359   5.699
 8284SOL    HW126859   2.956   1.341   5.699
 8284SOL    HW226860   3.076   1.351   5.793
 8285SOL     OW26861   2.487   0.799   7.023
 8285SOL    HW126862   2.544   0.878   7.013
 8285SOL    HW226863   2.555   0.729   7.024
 8286SOL     OW26864   3.369   1.769   6.553
 8286SOL    HW126865   3.404   1.810   6.473
 8286SOL    HW226866   3.450   1.756   6.606
 8287SOL     OW26867   2.566   0.566   7.284
 8287SOL    HW126868   2.625   0.627   7.333
 8287SOL    HW226869   2.579   0.481   7.329
 8288SOL     OW26870   3.320   1.182   7.214
 8288SOL    HW126871   3.312   1.189   7.311
 8288SOL    HW226872   3.414   1.204   7.199
 8289SOL     OW26873   2.236   1.740   7.144
 8289SOL    HW126874   2.147   1.777   7.136
 8289SOL    HW226875   2.217   1.646   7.160
 8290SOL     OW26876   3.562   0.903   6.827
 8290SOL    HW126877   3.532   0.818   6.793
 8290SOL    HW226878   3.531   0.966   6.759
 8291SOL     OW26879   3.091   0.302   6.037
 8291SOL    HW126880   3.146   0.222   6.040
 8291SOL    HW226881   3.122   0.351   6.116
 8292SOL     OW26882   2.444   0.760   6.246
 8292SOL    HW126883   2.485   0.848   6.237
 8292SOL    HW226884   2.368   0.767   6.188
 8293SOL     OW26885   3.637   0.376   7.228
 8293SOL    HW126886   3.609   0.381   7.135
 8293SOL    HW226887   3.568   0.317   7.264
 8294SOL     OW26888   3.596   0.937   7.089
 8294SOL    HW126889   3.605   1.033   7.097
 8294SOL    HW226890   3.602   0.923   6.993
 8295SOL     OW26891   2.742   1.362   5.618
 8295SOL    HW126892   2.702   1.380   5.705
 8295SOL    HW226893   2.748   1.450   5.577
 8296SOL     OW26894   2.500   1.807   6.508
 8296SOL    HW126895   2.496   1.903   6.493
 8296SOL    HW226896   2.595   1.790   6.514
 8297SOL     OW26897   2.743   0.953   6.424
 8297SOL    HW126898   2.793   0.878   6.459
 8297SOL    HW226899   2.728   1.008   6.503
 8298SOL     OW26900   2.957   1.004   5.691
 8298SOL    HW126901   2.929   1.058   5.615
 8298SOL    HW226902   3.014   0.938   5.647
 8299SOL     OW26903   3.726   1.555   6.411
 8299SOL    HW126904   3.631   1.558   6.393
 8299SOL    HW226905   3.732   1.489   6.481
 8300SOL     OW26906   2.115   1.310   7.460
 8300SOL    HW126907   2.029   1.276   7.433
 8300SOL    HW226908   2.104   1.317   7.556
 8301SOL     OW26909   1.947   1.241   6.240
 8301SOL    HW126910   1.968   1.198   6.323
 8301SOL    HW226911   2.024   1.217   6.186
 8302SOL     OW26912   2.539   1.391   7.200
 8302SOL    HW126913   2.459   1.342   7.225
 8302SOL    HW226914   2.526   1.476   7.245
 8303SOL     OW26915   3.690   0.192   6.806
 8303SOL    HW126916   3.673   0.097   6.815
 8303SOL    HW226917   3.700   0.199   6.710
 8304SOL     OW26918   2.265   0.419   6.094
 8304SOL    HW126919   2.310   0.349   6.045
 8304SOL    HW226920   2.225   0.372   6.169
 8305SOL     OW26921   3.580   1.492   6.669
 8305SOL    HW126922   3.496   1.469   6.624
 8305SOL    HW226923   3.576   1.430   6.743
 8306SOL     OW26924   2.184   0.546   6.866
 8306SOL    HW126925   2.249   0.494   6.918
 8306SOL    HW226926   2.208   0.528   6.774
 8307SOL     OW26927   2.683   1.593   6.254
 8307SOL    HW126928   2.661   1.605   6.161
 8307SOL    HW226929   2.605   1.545   6.287
 8308SOL     OW26930   3.290   0.241   6.676
 8308SOL    HW126931   3.316   0.158   6.717
 8308SOL    HW226932   3.240   0.287   6.747
 8309SOL     OW26933   2.866   0.004   6.743
 8309SOL    HW126934   2.818  11.022   6.736
 8309SOL    HW226935   2.958  11.079   6.723
 8310SOL     OW26936   2.650   1.343   5.897
 8310SOL    HW126937   2.622   1.250   5.900
 8310SOL    HW226938   2.721   1.345   5.962
 8311SOL     OW26939   2.461   1.563   6.854
 8311SOL    HW126940   2.467   1.651   6.894
 8311SOL    HW226941   2.551   1.554   6.819
 8312SOL     OW26942   3.180   0.061   5.765
 8312SOL    HW126943   3.178  11.089   5.702
 8312SOL    HW226944   3.090   0.056   5.803
 8313SOL     OW26945   3.148   0.459   6.249
 8313SOL    HW126946   3.092   0.539   6.245
 8313SOL    HW226947   3.137   0.432   6.343
 8314SOL     OW26948   3.490   0.215   6.457
 8314SOL    HW126949   3.416   0.227   6.518
 8314SOL    HW226950   3.486   0.299   6.408
 8315SOL     OW26951   1.892   1.063   5.897
 8315SOL    HW126952   1.981   1.077   5.861
 8315SOL    HW226953   1.893   0.967   5.913
 8316SOL     OW26954   2.737   1.648   5.916
 8316SOL    HW126955   2.660   1.630   5.859
 8316SOL    HW226956   2.712   1.731   5.963
 8317SOL     OW26957   2.090   0.636   7.568
 8317SOL    HW126958   2.002   0.614   7.602
 8317SOL    HW226959   2.093   0.593   7.480
 8318SOL     OW26960   2.075   0.300   8.446
 8318SOL    HW126961   2.093   0.284   8.540
 8318SOL    HW226962   2.010   0.231   8.425
 8319SOL     OW26963   1.863   0.404   8.090
 8319SOL    HW126964   1.785   0.427   8.144
 8319SOL    HW226965   1.827   0.334   8.034
 8320SOL     OW26966   2.436   1.292   8.647
 8320SOL    HW126967   2.347   1.284   8.610
 8320SOL    HW226968   2.441   1.386   8.670
 8321SOL     OW26969   3.423   1.513   8.161
 8321SOL    HW126970   3.382   1.496   8.248
 8321SOL    HW226971   3.350   1.506   8.097
 8322SOL     OW26972   2.998   0.683   8.157
 8322SOL    HW126973   3.031   0.774   8.144
 8322SOL    HW226974   2.956   0.690   8.244
 8323SOL     OW26975   3.636   0.610   7.680
 8323SOL    HW126976   3.613   0.602   7.585
 8323SOL    HW226977   3.602   0.526   7.714
 8324SOL     OW26978   2.595   1.167   8.473
 8324SOL    HW126979   2.538   1.211   8.539
 8324SOL    HW226980   2.637   1.245   8.431
 8325SOL     OW26981   2.742   0.763   9.247
 8325SOL    HW126982   2.714   0.821   9.319
 8325SOL    HW226983   2.769   0.827   9.178
 8326SOL     OW26984   2.547   1.030   8.109
 8326SOL    HW126985   2.617   1.007   8.173
 8326SOL    HW226986   2.482   1.076   8.165
 8327SOL     OW26987   2.561   1.157   9.254
 8327SOL    HW126988   2.605   1.239   9.283
 8327SOL    HW226989   2.473   1.189   9.226
 8328SOL     OW26990   2.185   1.422   8.518
 8328SOL    HW126991   2.116   1.371   8.473
 8328SOL    HW226992   2.230   1.473   8.448
 8329SOL     OW26993   3.333   1.496   8.828
 8329SOL    HW126994   3.388   1.576   8.841
 8329SOL    HW226995   3.262   1.509   8.892
 8330SOL     OW26996   2.300   0.410   8.943
 8330SOL    HW126997   2.377   0.351   8.936
 8330SOL    HW226998   2.225   0.348   8.940
 8331SOL     OW26999   3.464   0.462   8.189
 8331SOL    HW127000   3.399   0.479   8.119
 8331SOL    HW227001   3.437   0.528   8.255
 8332SOL     OW27002   2.990   1.356   9.115
 8332SOL    HW127003   3.035   1.353   9.200
 8332SOL    HW227004   2.945   1.269   9.118
 8333SOL     OW27005   2.050   1.517   7.986
 8333SOL    HW127006   2.102   1.526   8.067
 8333SOL    HW227007   1.999   1.437   8.008
 8334SOL     OW27008   2.129   1.101   8.354
 8334SOL    HW127009   2.132   1.019   8.406
 8334SOL    HW227010   2.070   1.157   8.407
 8335SOL     OW27011   2.457   1.796   8.854
 8335SOL    HW127012   2.389   1.768   8.918
 8335SOL    HW227013   2.482   1.885   8.886
 8336SOL     OW27014   2.426   0.994   7.555
 8336SOL    HW127015   2.479   1.037   7.485
 8336SOL    HW227016   2.476   1.023   7.634
 8337SOL     OW27017   3.460   0.099   8.930
 8337SOL    HW127018   3.454   0.157   8.853
 8337SOL    HW227019   3.435   0.159   9.001
 8338SOL     OW27020   1.974   0.662   8.013
 8338SOL    HW127021   1.952   0.572   8.043
 8338SOL    HW227022   1.973   0.714   8.097
 8339SOL     OW27023   3.709   1.736   7.796
 8339SOL    HW127024   3.782   1.721   7.860
 8339SOL    HW227025   3.722   1.829   7.773
 8340SOL     OW27026   1.930   1.602   7.568
 8340SOL    HW127027   1.910   1.508   7.575
 8340SOL    HW227028   1.906   1.636   7.655
 8341SOL     OW27029   3.571   0.914   8.058
 8341SOL    HW127030   3.613   0.866   7.984
 8341SOL    HW227031   3.521   0.981   8.010
 8342SOL     OW27032   3.502   1.129   7.884
 8342SOL    HW127033   3.592   1.127   7.850
 8342SOL    HW227034   3.510   1.195   7.956
 8343SOL     OW27035   1.981   0.738   9.026
 8343SOL    HW127036   2.065   0.784   9.035
 8343SOL    HW227037   1.917   0.809   9.036
 8344SOL     OW27038   2.455   1.407   8.201
 8344SOL    HW127039   2.416   1.318   8.215
 8344SOL    HW227040   2.443   1.416   8.105
 8345SOL     OW27041   3.144   1.234   8.868
 8345SOL    HW127042   3.178   1.160   8.815
 8345SOL    HW227043   3.192   1.222   8.952
 8346SOL     OW27044   2.682   0.007   7.966
 8346SOL    HW127045   2.710   0.098   7.947
 8346SOL    HW227046   2.586   0.009   7.948
 8347SOL     OW27047   2.045   0.967   8.716
 8347SOL    HW127048   2.130   0.926   8.693
 8347SOL    HW227049   1.982   0.918   8.662
 8348SOL     OW27050   3.402   0.964   7.629
 8348SOL    HW127051   3.324   0.914   7.660
 8348SOL    HW227052   3.434   1.004   7.711
 8349SOL     OW27053   3.037   1.797   9.065
 8349SOL    HW127054   3.044   1.859   8.991
 8349SOL    HW227055   3.062   1.713   9.022
 8350SOL     OW27056   2.200   0.255   9.315
 8350SOL    HW127057   2.245   0.337   9.340
 8350SOL    HW227058   2.106   0.281   9.319
 8351SOL     OW27059   3.332   1.427   8.407
 8351SOL    HW127060   3.269   1.448   8.480
 8351SOL    HW227061   3.302   1.337   8.382
 8352SOL     OW27062   3.524   1.736   8.057
 8352SOL    HW127063   3.503   1.707   7.968
 8352SOL    HW227064   3.499   1.658   8.109
 8353SOL     OW27065   2.444   0.715   7.707
 8353SOL    HW127066   2.456   0.800   7.665
 8353SOL    HW227067   2.374   0.732   7.773
 8354SOL     OW27068   3.127   0.372   8.383
 8354SOL    HW127069   3.042   0.327   8.395
 8354SOL    HW227070   3.186   0.320   8.440
 8355SOL     OW27071   3.440   1.641   7.758
 8355SOL    HW127072   3.533   1.667   7.762
 8355SOL    HW227073   3.428   1.632   7.661
 8356SOL     OW27074   2.680   0.611   8.899
 8356SOL    HW127075   2.649   0.587   8.989
 8356SOL    HW227076   2.632   0.546   8.844
 8357SOL     OW27077   3.255   0.489   9.116
 8357SOL    HW127078   3.253   0.541   9.198
 8357SOL    HW227079   3.321   0.421   9.135
 8358SOL     OW27080   2.835   0.916   9.044
 8358SOL    HW127081   2.890   0.841   9.011
 8358SOL    HW227082   2.781   0.933   8.964
 8359SOL     OW27083   2.866   0.389   8.683
 8359SOL    HW127084   2.783   0.422   8.719
 8359SOL    HW227085   2.839   0.339   8.605
 8360SOL     OW27086   2.907   0.690   7.875
 8360SOL    HW127087   2.924   0.696   7.970
 8360SOL    HW227088   2.821   0.643   7.871
 8361SOL     OW27089   1.980   0.837   8.218
 8361SOL    HW127090   2.044   0.828   8.291
 8361SOL    HW227091   1.925   0.910   8.250
 8362SOL     OW27092   1.965   1.835   9.015
 8362SOL    HW127093   1.978   1.819   9.111
 8362SOL    HW227094   1.869   1.829   9.008
 8363SOL     OW27095   2.741   0.346   7.672
 8363SOL    HW127096   2.784   0.400   7.604
 8363SOL    HW227097   2.713   0.269   7.621
 8364SOL     OW27098   3.575   0.568   9.290
 8364SOL    HW127099   3.536   0.650   9.251
 8364SOL    HW227100   3.597   0.519   9.209
 8365SOL     OW27101   3.232   1.148   8.008
 8365SOL    HW127102   3.312   1.137   7.956
 8365SOL    HW227103   3.184   1.215   7.955
 8366SOL     OW27104   2.402   0.200   8.334
 8366SOL    HW127105   2.427   0.212   8.427
 8366SOL    HW227106   2.407   0.289   8.296
 8367SOL     OW27107   2.843   1.440   7.936
 8367SOL    HW127108   2.804   1.503   7.873
 8367SOL    HW227109   2.861   1.494   8.014
 8368SOL     OW27110   2.207   1.808   8.298
 8368SOL    HW127111   2.257   1.726   8.316
 8368SOL    HW227112   2.271   1.876   8.323
 8369SOL     OW27113   3.673   1.033   8.308
 8369SOL    HW127114   3.623   1.016   8.227
 8369SOL    HW227115   3.602   1.042   8.374
 8370SOL     OW27116   3.091   1.557   8.949
 8370SOL    HW127117   3.063   1.490   9.015
 8370SOL    HW227118   3.044   1.526   8.870
 8371SOL     OW27119   2.177   0.959   7.703
 8371SOL    HW127120   2.263   0.964   7.658
 8371SOL    HW227121   2.151   0.867   7.690
 8372SOL     OW27122   3.346   0.744   8.165
 8372SOL    HW127123   3.324   0.699   8.249
 8372SOL    HW227124   3.415   0.805   8.193
 8373SOL     OW27125   2.321   1.269   9.176
 8373SOL    HW127126   2.281   1.274   9.086
 8373SOL    HW227127   2.240   1.272   9.231
 8374SOL     OW27128   2.951   1.770   7.687
 8374SOL    HW127129   2.882   1.717   7.729
 8374SOL    HW227130   2.971   1.719   7.606
 8375SOL     OW27131   2.036   0.300   8.946
 8375SOL    HW127132   1.957   0.347   8.977
 8375SOL    HW227133   2.011   0.208   8.966
 8376SOL     OW27134   3.493   1.366   7.547
 8376SOL    HW127135   3.461   1.452   7.516
 8376SOL    HW227136   3.429   1.304   7.508
 8377SOL     OW27137   2.327   1.714   7.789
 8377SOL    HW127138   2.374   1.780   7.844
 8377SOL    HW227139   2.390   1.697   7.717
 8378SOL     OW27140   3.273   0.096   7.892
 8378SOL    HW127141   3.251   0.074   7.800
 8378SOL    HW227142   3.344   0.160   7.882
 8379SOL     OW27143   2.113   1.803   8.683
 8379SOL    HW127144   2.167   1.747   8.739
 8379SOL    HW227145   2.109   1.755   8.600
 8380SOL     OW27146   2.821   1.699   8.336
 8380SOL    HW127147   2.904   1.651   8.343
 8380SOL    HW227148   2.773   1.647   8.269
 8381SOL     OW27149   2.215   0.697   7.883
 8381SOL    HW127150   2.241   0.604   7.902
 8381SOL    HW227151   2.127   0.699   7.926
 8382SOL     OW27152   3.404   0.242   9.163
 8382SOL    HW127153   3.402   0.256   9.261
 8382SOL    HW227154   3.339   0.170   9.157
 8383SOL     OW27155   2.495   0.118   7.535
 8383SOL    HW127156   2.514   0.030   7.571
 8383SOL    HW227157   2.444   0.095   7.455
 8384SOL     OW27158   2.626   0.288   9.199
 8384SOL    HW127159   2.707   0.233   9.195
 8384SOL    HW227160   2.580   0.250   9.275
 8385SOL     OW27161   2.745   1.536   8.648
 8385SOL    HW127162   2.744   1.504   8.556
 8385SOL    HW227163   2.814   1.482   8.691
 8386SOL     OW27164   3.177   0.586   8.881
 8386SOL    HW127165   3.221   0.547   8.960
 8386SOL    HW227166   3.230   0.667   8.866
 8387SOL     OW27167   2.676   1.409   8.376
 8387SOL    HW127168   2.763   1.395   8.333
 8387SOL    HW227169   2.614   1.401   8.302
 8388SOL     OW27170   2.806   0.537   8.354
 8388SOL    HW127171   2.771   0.518   8.264
 8388SOL    HW227172   2.838   0.449   8.379
 8389SOL     OW27173   2.397   0.020   7.943
 8389SOL    HW127174   2.316   0.021   7.996
 8389SOL    HW227175   2.384   0.098   7.885
 8390SOL     OW27176   3.302   1.182   7.477
 8390SOL    HW127177   3.325   1.108   7.537
 8390SOL    HW227178   3.219   1.214   7.514
 8391SOL     OW27179   2.165   0.037   7.667
 8391SOL    HW127180   2.214   0.109   7.625
 8391SOL    HW227181   2.234  11.081   7.701
 8392SOL     OW27182   2.797   0.252   7.939
 8392SOL    HW127183   2.777   0.288   7.851
 8392SOL    HW227184   2.894   0.258   7.941
 8393SOL     OW27185   2.946   0.715   8.919
 8393SOL    HW127186   2.879   0.644   8.920
 8393SOL    HW227187   3.029   0.663   8.915
 8394SOL     OW27188   3.087   1.584   8.243
 8394SOL    HW127189   3.090   1.639   8.163
 8394SOL    HW227190   3.168   1.612   8.288
 8395SOL     OW27191   2.327   1.175   8.193
 8395SOL    HW127192   2.252   1.144   8.248
 8395SOL    HW227193   2.297   1.150   8.102
 8396SOL     OW27194   3.125   1.809   8.050
 8396SOL    HW127195   3.176   1.878   8.003
 8396SOL    HW227196   3.072   1.862   8.111
 8397SOL     OW27197   2.940   0.536   7.469
 8397SOL    HW127198   2.892   0.619   7.450
 8397SOL    HW227199   3.002   0.561   7.540
 8398SOL     OW27200   1.928   0.568   8.832
 8398SOL    HW127201   2.023   0.553   8.821
 8398SOL    HW227202   1.927   0.634   8.904
 8399SOL     OW27203   2.421   0.216   8.622
 8399SOL    HW127204   2.459   0.165   8.695
 8399SOL    HW227205   2.327   0.221   8.649
 8400SOL     OW27206   2.727   0.449   8.114
 8400SOL    HW127207   2.688   0.503   8.044
 8400SOL    HW227208   2.750   0.367   8.066
 8401SOL     OW27209   2.852   0.022   8.209
 8401SOL    HW127210   2.794   0.049   8.136
 8401SOL    HW227211   2.816  11.036   8.230
 8402SOL     OW27212   3.276   1.174   8.328
 8402SOL    HW127213   3.216   1.104   8.357
 8402SOL    HW227214   3.267   1.168   8.232
 8403SOL     OW27215   3.339   0.596   8.403
 8403SOL    HW127216   3.268   0.531   8.414
 8403SOL    HW227217   3.390   0.588   8.486
 8404SOL     OW27218   3.695   0.811   7.840
 8404SOL    HW127219   3.762   0.768   7.896
 8404SOL    HW227220   3.677   0.741   7.772
 8405SOL     OW27221   2.358   1.421   7.581
 8405SOL    HW127222   2.276   1.406   7.631
 8405SOL    HW227223   2.347   1.365   7.504
 8406SOL     OW27224   3.541   1.281   8.100
 8406SOL    HW127225   3.638   1.291   8.103
 8406SOL    HW227226   3.508   1.369   8.128
 8407SOL     OW27227   3.271   0.596   7.504
 8407SOL    HW127228   3.219   0.570   7.583
 8407SOL    HW227229   3.356   0.555   7.521
 8408SOL     OW27230   2.378   0.245   7.754
 8408SOL    HW127231   2.433   0.208   7.683
 8408SOL    HW227232   2.347   0.329   7.714
 8409SOL     OW27233   3.596   1.231   9.021
 8409SOL    HW127234   3.686   1.197   9.026
 8409SOL    HW227235   3.612   1.325   9.040
 8410SOL     OW27236   2.929   1.375   8.786
 8410SOL    HW127237   2.852   1.338   8.832
 8410SOL    HW227238   3.003   1.324   8.825
 8411SOL     OW27239   3.470   1.613   9.093
 8411SOL    HW127240   3.473   1.650   9.003
 8411SOL    HW227241   3.551   1.559   9.093
 8412SOL     OW27242   2.990   1.221   8.549
 8412SOL    HW127243   2.926   1.260   8.609
 8412SOL    HW227244   2.966   1.260   8.464
 8413SOL     OW27245   3.459   1.096   8.515
 8413SOL    HW127246   3.464   1.162   8.588
 8413SOL    HW227247   3.401   1.143   8.452
 8414SOL     OW27248   2.753   0.082   8.858
 8414SOL    HW127249   2.780   0.068   8.765
 8414SOL    HW227250   2.835   0.115   8.897
 8415SOL     OW27251   2.869   1.132   9.196
 8415SOL    HW127252   2.778   1.161   9.215
 8415SOL    HW227253   2.855   1.057   9.135
 8416SOL     OW27254   2.574   1.052   7.779
 8416SOL    HW127255   2.555   1.031   7.871
 8416SOL    HW227256   2.653   0.995   7.761
 8417SOL     OW27257   2.282   0.818   8.701
 8417SOL    HW127258   2.352   0.814   8.769
 8417SOL    HW227259   2.239   0.731   8.713
 8418SOL     OW27260   3.150   0.403   8.696
 8418SOL    HW127261   3.158   0.472   8.765
 8418SOL    HW227262   3.054   0.405   8.676
 8419SOL     OW27263   1.941   1.568   8.794
 8419SOL    HW127264   1.944   1.661   8.768
 8419SOL    HW227265   2.035   1.541   8.786
 8420SOL     OW27266   2.234   1.118   7.951
 8420SOL    HW127267   2.285   1.159   7.880
 8420SOL    HW227268   2.208   1.034   7.911
 8421SOL     OW27269   2.385   0.563   8.271
 8421SOL    HW127270   2.417   0.624   8.202
 8421SOL    HW227271   2.453   0.568   8.340
 8422SOL     OW27272   3.098   1.334   7.850
 8422SOL    HW127273   3.135   1.418   7.882
 8422SOL    HW227274   3.008   1.337   7.883
 8423SOL     OW27275   3.166   1.471   8.616
 8423SOL    HW127276   3.227   1.467   8.693
 8423SOL    HW227277   3.104   1.399   8.634
 8424SOL     OW27278   3.453   0.629   7.920
 8424SOL    HW127279   3.406   0.672   7.993
 8424SOL    HW227280   3.469   0.702   7.859
 8425SOL     OW27281   2.202   1.502   8.763
 8425SOL    HW127282   2.197   1.466   8.671
 8425SOL    HW227283   2.293   1.537   8.761
 8426SOL     OW27284   2.299   0.719   9.069
 8426SOL    HW127285   2.362   0.760   9.008
 8426SOL    HW227286   2.318   0.625   9.057
 8427SOL     OW27287   3.491   0.773   9.139
 8427SOL    HW127288   3.401   0.809   9.132
 8427SOL    HW227289   3.532   0.816   9.062
 8428SOL     OW27290   2.861   0.134   9.203
 8428SOL    HW127291   2.919   0.211   9.204
 8428SOL    HW227292   2.918   0.069   9.160
 8429SOL     OW27293   2.355   0.058   9.197
 8429SOL    HW127294   2.293   0.002   9.149
 8429SOL    HW227295   2.297   0.131   9.227
 8430SOL     OW27296   2.433   0.901   8.483
 8430SOL    HW127297   2.474   0.989   8.491
 8430SOL    HW227298   2.391   0.887   8.569
 8431SOL     OW27299   3.213   0.878   8.465
 8431SOL    HW127300   3.130   0.835   8.439
 8431SOL    HW227301   3.268   0.802   8.486
 8432SOL     OW27302   3.094   0.526   7.712
 8432SOL    HW127303   3.099   0.448   7.770
 8432SOL    HW227304   3.028   0.579   7.759
 8433SOL     OW27305   2.166   0.220   8.715
 8433SOL    HW127306   2.118   0.256   8.792
 8433SOL    HW227307   2.117   0.138   8.698
 8434SOL     OW27308   1.894   1.303   8.731
 8434SOL    HW127309   1.916   1.245   8.806
 8434SOL    HW227310   1.906   1.392   8.767
 8435SOL     OW27311   2.561   0.608   8.470
 8435SOL    HW127312   2.653   0.591   8.439
 8435SOL    HW227313   2.555   0.704   8.467
 8436SOL     OW27314   3.629   0.963   9.290
 8436SOL    HW127315   3.582   0.897   9.236
 8436SOL    HW227316   3.567   0.975   9.363
 8437SOL     OW27317   2.148   0.036   8.070
 8437SOL    HW127318   2.134   0.132   8.079
 8437SOL    HW227319   2.156   0.011   8.163
 8438SOL     OW27320   3.456   0.387   7.792
 8438SOL    HW127321   3.508   0.333   7.852
 8438SOL    HW227322   3.445   0.470   7.843
 8439SOL     OW27323   2.954   0.751   8.424
 8439SOL    HW127324   2.921   0.772   8.514
 8439SOL    HW227325   2.912   0.664   8.411
 8440SOL     OW27326   2.836   1.568   9.152
 8440SOL    HW127327   2.832   1.620   9.069
 8440SOL    HW227328   2.869   1.482   9.121
 8441SOL     OW27329   3.710   1.488   9.050
 8441SOL    HW127330   3.734   1.517   8.960
 8441SOL    HW227331   3.789   1.516   9.101
 8442SOL     OW27332   2.213   0.895   9.245
 8442SOL    HW127333   2.298   0.916   9.287
 8442SOL    HW227334   2.238   0.820   9.186
 8443SOL     OW27335   3.379   0.265   7.561
 8443SOL    HW127336   3.304   0.210   7.591
 8443SOL    HW227337   3.409   0.308   7.643
 8444SOL     OW27338   3.151   0.828   7.474
 8444SOL    HW127339   3.204   0.746   7.479
 8444SOL    HW227340   3.178   0.862   7.386
 8445SOL     OW27341   2.924   1.368   8.293
 8445SOL    HW127342   2.941   1.291   8.234
 8445SOL    HW227343   2.995   1.431   8.270
 8446SOL     OW27344   2.150   0.833   8.438
 8446SOL    HW127345   2.245   0.851   8.429
 8446SOL    HW227346   2.150   0.740   8.466
 8447SOL     OW27347   2.190   0.545   8.450
 8447SOL    HW127348   2.157   0.454   8.434
 8447SOL    HW227349   2.257   0.553   8.378
 8448SOL     OW27350   3.006   0.377   9.123
 8448SOL    HW127351   2.963   0.432   9.192
 8448SOL    HW227352   3.095   0.417   9.119
 8449SOL     OW27353   3.034   0.221   8.904
 8449SOL    HW127354   3.014   0.284   8.977
 8449SOL    HW227355   3.060   0.281   8.833
 8450SOL     OW27356   1.865   1.327   7.649
 8450SOL    HW127357   1.772   1.342   7.620
 8450SOL    HW227358   1.861   1.234   7.680
 8451SOL     OW27359   1.958   1.780   8.397
 8451SOL    HW127360   1.930   1.712   8.332
 8451SOL    HW227361   2.050   1.795   8.368
 8452SOL     OW27362   2.344   1.583   8.370
 8452SOL    HW127363   2.411   1.651   8.391
 8452SOL    HW227364   2.397   1.518   8.319
 8453SOL     OW27365   2.831   0.761   8.669
 8453SOL    HW127366   2.891   0.749   8.744
 8453SOL    HW227367   2.745   0.748   8.710
 8454SOL     OW27368   1.894   0.534   8.551
 8454SOL    HW127369   1.972   0.507   8.502
 8454SOL    HW227370   1.926   0.540   8.642
 8455SOL     OW27371   2.078   0.516   9.163
 8455SOL    HW127372   2.105   0.451   9.097
 8455SOL    HW227373   2.050   0.592   9.110
 8456SOL     OW27374   3.256   0.908   9.091
 8456SOL    HW127375   3.275   1.003   9.093
 8456SOL    HW227376   3.248   0.891   8.996
 8457SOL     OW27377   2.673   0.571   7.835
 8457SOL    HW127378   2.688   0.494   7.778
 8457SOL    HW227379   2.596   0.613   7.795
 8458SOL     OW27380   3.496   0.618   8.625
 8458SOL    HW127381   3.469   0.563   8.700
 8458SOL    HW227382   3.587   0.591   8.607
 8459SOL     OW27383   2.114   1.537   9.173
 8459SOL    HW127384   2.096   1.605   9.239
 8459SOL    HW227385   2.115   1.455   9.226
 8460SOL     OW27386   2.555   0.469   8.711
 8460SOL    HW127387   2.502   0.391   8.688
 8460SOL    HW227388   2.542   0.525   8.632
 8461SOL     OW27389   2.789   1.694   8.912
 8461SOL    HW127390   2.777   1.660   8.822
 8461SOL    HW227391   2.781   1.791   8.900
 8462SOL     OW27392   2.299   0.474   7.639
 8462SOL    HW127393   2.366   0.543   7.651
 8462SOL    HW227394   2.217   0.526   7.643
 8463SOL     OW27395   1.968   1.129   8.918
 8463SOL    HW127396   1.986   1.082   9.003
 8463SOL    HW227397   1.998   1.064   8.851
 8464SOL     OW27398   3.179   1.038   8.685
 8464SOL    HW127399   3.199   0.990   8.602
 8464SOL    HW227400   3.107   1.096   8.655
 8465SOL     OW27401   3.176   0.848   7.748
 8465SOL    HW127402   3.091   0.829   7.790
 8465SOL    HW227403   3.154   0.847   7.653
 8466SOL     OW27404   3.620   1.750   8.580
 8466SOL    HW127405   3.693   1.771   8.519
 8466SOL    HW227406   3.610   1.654   8.564
 8467SOL     OW27407   3.105   1.729   8.559
 8467SOL    HW127408   3.190   1.754   8.519
 8467SOL    HW227409   3.117   1.633   8.575
 8468SOL     OW27410   1.959   1.258   8.479
 8468SOL    HW127411   1.929   1.272   8.572
 8468SOL    HW227412   1.886   1.206   8.442
 8469SOL     OW27413   2.555   1.636   9.188
 8469SOL    HW127414   2.520   1.723   9.167
 8469SOL    HW227415   2.648   1.642   9.160
 8470SOL     OW27416   3.592   0.125   7.970
 8470SOL    HW127417   3.654   0.131   7.895
 8470SOL    HW227418   3.584   0.031   7.987
 8471SOL     OW27419   3.224   1.577   7.930
 8471SOL    HW127420   3.279   1.598   7.852
 8471SOL    HW227421   3.187   1.664   7.953
 8472SOL     OW27422   2.011   1.794   9.277
 8472SOL    HW127423   1.968   1.725   9.330
 8472SOL    HW227424   2.058   1.843   9.346
 8473SOL     OW27425   3.125   0.914   8.122
 8473SOL    HW127426   3.202   0.856   8.134
 8473SOL    HW227427   3.163   0.986   8.068
 8474SOL     OW27428   2.672   1.264   8.868
 8474SOL    HW127429   2.642   1.314   8.947
 8474SOL    HW227430   2.595   1.274   8.811
 8475SOL     OW27431   2.528   1.622   7.601
 8475SOL    HW127432   2.547   1.630   7.505
 8475SOL    HW227433   2.474   1.540   7.601
 8476SOL     OW27434   3.484   1.716   8.841
 8476SOL    HW127435   3.530   1.730   8.757
 8476SOL    HW227436   3.472   1.808   8.873
 8477SOL     OW27437   2.107   0.300   8.150
 8477SOL    HW127438   2.020   0.341   8.133
 8477SOL    HW227439   2.112   0.304   8.247
 8478SOL     OW27440   3.039   1.624   7.470
 8478SOL    HW127441   3.050   1.529   7.487
 8478SOL    HW227442   2.983   1.626   7.391
 8479SOL     OW27443   2.682   0.994   8.829
 8479SOL    HW127444   2.714   0.997   8.739
 8479SOL    HW227445   2.681   1.088   8.854
 8480SOL     OW27446   2.777   0.895   7.720
 8480SOL    HW127447   2.852   0.930   7.668
 8480SOL    HW227448   2.818   0.823   7.772
 8481SOL     OW27449   3.412   1.621   7.484
 8481SOL    HW127450   3.316   1.628   7.477
 8481SOL    HW227451   3.438   1.627   7.389
 8482SOL     OW27452   2.205   1.279   8.937
 8482SOL    HW127453   2.198   1.351   8.872
 8482SOL    HW227454   2.122   1.231   8.926
 8483SOL     OW27455   3.465   1.304   8.707
 8483SOL    HW127456   3.510   1.277   8.788
 8483SOL    HW227457   3.405   1.373   8.742
 8484SOL     OW27458   2.927   1.124   8.177
 8484SOL    HW127459   2.851   1.073   8.209
 8484SOL    HW227460   2.985   1.054   8.145
 8485SOL     OW27461   2.899   0.232   8.423
 8485SOL    HW127462   2.882   0.182   8.341
 8485SOL    HW227463   2.884   0.162   8.489
 8486SOL     OW27464   2.450   1.464   7.935
 8486SOL    HW127465   2.512   1.430   7.868
 8486SOL    HW227466   2.409   1.538   7.890
 8487SOL     OW27467   3.569   0.379   8.839
 8487SOL    HW127468   3.628   0.456   8.830
 8487SOL    HW227469   3.608   0.317   8.774
 8488SOL     OW27470   2.106   1.394   7.732
 8488SOL    HW127471   2.014   1.367   7.714
 8488SOL    HW227472   2.100   1.428   7.822
 8489SOL     OW27473   1.995   1.042   9.170
 8489SOL    HW127474   1.918   1.016   9.224
 8489SOL    HW227475   2.067   0.989   9.211
 8490SOL     OW27476   2.527   0.231   8.928
 8490SOL    HW127477   2.602   0.176   8.900
 8490SOL    HW227478   2.555   0.257   9.018
 8491SOL     OW27479   1.944   0.344   7.502
 8491SOL    HW127480   1.890   0.289   7.444
 8491SOL    HW227481   1.978   0.411   7.440
 8492SOL     OW27482   3.310   0.844   8.825
 8492SOL    HW127483   3.266   0.912   8.770
 8492SOL    HW227484   3.402   0.874   8.828
 8493SOL     OW27485   1.898   0.170   7.760
 8493SOL    HW127486   1.899   0.238   7.691
 8493SOL    HW227487   1.987   0.132   7.753
 8494SOL     OW27488   3.059   1.355   7.564
 8494SOL    HW127489   2.969   1.320   7.565
 8494SOL    HW227490   3.084   1.353   7.658
 8495SOL     OW27491   2.483   0.796   8.879
 8495SOL    HW127492   2.536   0.877   8.879
 8495SOL    HW227493   2.553   0.729   8.889
 8496SOL     OW27494   3.367   1.754   8.414
 8496SOL    HW127495   3.402   1.796   8.335
 8496SOL    HW227496   3.445   1.748   8.471
 8497SOL     OW27497   2.586   0.568   9.138
 8497SOL    HW127498   2.631   0.633   9.195
 8497SOL    HW227499   2.597   0.484   9.185
 8498SOL     OW27500   3.325   1.183   9.071
 8498SOL    HW127501   3.317   1.188   9.169
 8498SOL    HW227502   3.419   1.203   9.057
 8499SOL     OW27503   2.234   1.731   9.013
 8499SOL    HW127504   2.149   1.778   9.004
 8499SOL    HW227505   2.205   1.646   9.051
 8500SOL     OW27506   3.563   0.901   8.676
 8500SOL    HW127507   3.523   0.819   8.645
 8500SOL    HW227508   3.524   0.969   8.616
 8501SOL     OW27509   3.091   0.318   7.904
 8501SOL    HW127510   3.135   0.232   7.906
 8501SOL    HW227511   3.127   0.362   7.983
 8502SOL     OW27512   2.447   0.758   8.083
 8502SOL    HW127513   2.485   0.847   8.090
 8502SOL    HW227514   2.365   0.772   8.036
 8503SOL     OW27515   3.633   0.380   9.097
 8503SOL    HW127516   3.606   0.386   9.004
 8503SOL    HW227517   3.565   0.319   9.130
 8504SOL     OW27518   3.586   0.926   8.944
 8504SOL    HW127519   3.596   1.021   8.958
 8504SOL    HW227520   3.600   0.918   8.848
 8505SOL     OW27521   2.732   1.360   7.476
 8505SOL    HW127522   2.706   1.377   7.568
 8505SOL    HW227523   2.750   1.449   7.441
 8506SOL     OW27524   2.501   1.801   8.365
 8506SOL    HW127525   2.491   1.898   8.357
 8506SOL    HW227526   2.596   1.790   8.381
 8507SOL     OW27527   2.743   0.957   8.293
 8507SOL    HW127528   2.784   0.882   8.338
 8507SOL    HW227529   2.714   1.014   8.366
 8508SOL     OW27530   2.972   0.994   7.562
 8508SOL    HW127531   2.941   1.050   7.488
 8508SOL    HW227532   3.030   0.930   7.517
 8509SOL     OW27533   3.728   1.558   8.278
 8509SOL    HW127534   3.638   1.560   8.245
 8509SOL    HW227535   3.723   1.497   8.353
 8510SOL     OW27536   2.098   1.310   9.318
 8510SOL    HW127537   2.028   1.247   9.297
 8510SOL    HW227538   2.077   1.331   9.411
 8511SOL     OW27539   1.964   1.252   8.093
 8511SOL    HW127540   1.973   1.209   8.179
 8511SOL    HW227541   2.029   1.204   8.040
 8512SOL     OW27542   2.534   1.398   9.061
 8512SOL    HW127543   2.459   1.346   9.095
 8512SOL    HW227544   2.523   1.483   9.108
 8513SOL     OW27545   3.669   0.166   8.688
 8513SOL    HW127546   3.710   0.114   8.759
 8513SOL    HW227547   3.633   0.097   8.629
 8514SOL     OW27548   2.259   0.430   7.951
 8514SOL    HW127549   2.303   0.359   7.901
 8514SOL    HW227550   2.228   0.384   8.030
 8515SOL     OW27551   3.585   1.493   8.531
 8515SOL    HW127552   3.499   1.470   8.492
 8515SOL    HW227553   3.586   1.434   8.607
 8516SOL     OW27554   2.189   0.561   8.732
 8516SOL    HW127555   2.252   0.511   8.787
 8516SOL    HW227556   2.210   0.532   8.641
 8517SOL     OW27557   2.678   1.594   8.122
 8517SOL    HW127558   2.670   1.616   8.028
 8517SOL    HW227559   2.597   1.543   8.140
 8518SOL     OW27560   3.304   0.251   8.541
 8518SOL    HW127561   3.311   0.163   8.580
 8518SOL    HW227562   3.253   0.301   8.609
 8519SOL     OW27563   2.859   0.007   8.604
 8519SOL    HW127564   2.810  11.024   8.602
 8519SOL    HW227565   2.951  11.079   8.593
 8520SOL     OW27566   2.651   1.338   7.762
 8520SOL    HW127567   2.630   1.243   7.756
 8520SOL    HW227568   2.722   1.339   7.827
 8521SOL     OW27569   2.456   1.565   8.708
 8521SOL    HW127570   2.459   1.651   8.755
 8521SOL    HW227571   2.551   1.553   8.694
 8522SOL     OW27572   3.199   0.078   7.628
 8522SOL    HW127573   3.213   0.003   7.569
 8522SOL    HW227574   3.106   0.064   7.657
 8523SOL     OW27575   3.169   0.460   8.131
 8523SOL    HW127576   3.109   0.535   8.117
 8523SOL    HW227577   3.143   0.428   8.219
 8524SOL     OW27578   3.477   0.232   8.326
 8524SOL    HW127579   3.407   0.240   8.394
 8524SOL    HW227580   3.459   0.311   8.271
 8525SOL     OW27581   1.913   1.071   7.750
 8525SOL    HW127582   2.007   1.056   7.729
 8525SOL    HW227583   1.885   0.981   7.777
 8526SOL     OW27584   2.733   1.644   7.780
 8526SOL    HW127585   2.659   1.633   7.718
 8526SOL    HW227586   2.717   1.730   7.823
 8527SOL     OW27587   2.098   0.630   9.442
 8527SOL    HW127588   2.004   0.619   9.464
 8527SOL    HW227589   2.100   0.618   9.346
 8528SOL     OW27590   2.066   0.300  10.299
 8528SOL    HW127591   2.096   0.273  10.388
 8528SOL    HW227592   2.004   0.228  10.277
 8529SOL     OW27593   1.870   0.389   9.952
 8529SOL    HW127594   1.796   0.425  10.004
 8529SOL    HW227595   1.825   0.328   9.892
 8530SOL     OW27596   2.438   1.299  10.483
 8530SOL    HW127597   2.345   1.284  10.461
 8530SOL    HW227598   2.434   1.388  10.522
 8531SOL     OW27599   3.419   1.517  10.021
 8531SOL    HW127600   3.381   1.494  10.108
 8531SOL    HW227601   3.343   1.514   9.960
 8532SOL     OW27602   2.996   0.692  10.005
 8532SOL    HW127603   3.031   0.784  10.000
 8532SOL    HW227604   2.944   0.697  10.086
 8533SOL     OW27605   3.643   0.601   9.543
 8533SOL    HW127606   3.617   0.600   9.448
 8533SOL    HW227607   3.611   0.514   9.570
 8534SOL     OW27608   2.610   1.157  10.334
 8534SOL    HW127609   2.544   1.205  10.388
 8534SOL    HW227610   2.646   1.231  10.282
 8535SOL     OW27611   2.765   0.807   0.021
 8535SOL    HW127612   2.679   0.835   0.054
 8535SOL    HW227613   2.768   0.843  11.031
 8536SOL     OW27614   2.554   1.017   9.974
 8536SOL    HW127615   2.622   1.006  10.042
 8536SOL    HW227616   2.484   1.066  10.019
 8537SOL     OW27617   2.176   1.431  10.383
 8537SOL    HW127618   2.105   1.386  10.334
 8537SOL    HW227619   2.224   1.480  10.314
 8538SOL     OW27620   3.335   1.492  10.668
 8538SOL    HW127621   3.391   1.573  10.672
 8538SOL    HW227622   3.272   1.507  10.740
 8539SOL     OW27623   2.303   0.409  10.823
 8539SOL    HW127624   2.374   0.345  10.803
 8539SOL    HW227625   2.222   0.356  10.819
 8540SOL     OW27626   3.413   0.472  10.077
 8540SOL    HW127627   3.333   0.479  10.020
 8540SOL    HW227628   3.474   0.529  10.028
 8541SOL     OW27629   2.080   1.717   9.790
 8541SOL    HW127630   2.113   1.793   9.841
 8541SOL    HW227631   2.143   1.715   9.716
 8542SOL     OW27632   2.114   1.437   9.849
 8542SOL    HW127633   2.105   1.533   9.854
 8542SOL    HW227634   2.044   1.405   9.908
 8543SOL     OW27635   2.128   1.077  10.197
 8543SOL    HW127636   2.135   1.005  10.261
 8543SOL    HW227637   2.075   1.143  10.246
 8544SOL     OW27638   2.450   1.807  10.714
 8544SOL    HW127639   2.383   1.782  10.781
 8544SOL    HW227640   2.476   1.897  10.744
 8545SOL     OW27641   2.438   0.988   9.432
 8545SOL    HW127642   2.485   1.041   9.365
 8545SOL    HW227643   2.481   1.021   9.514
 8546SOL     OW27644   3.473   0.125  10.782
 8546SOL    HW127645   3.492   0.216  10.757
 8546SOL    HW227646   3.421   0.132  10.863
 8547SOL     OW27647   1.977   0.650   9.881
 8547SOL    HW127648   1.955   0.558   9.903
 8547SOL    HW227649   1.969   0.697   9.966
 8548SOL     OW27650   3.707   1.736   9.663
 8548SOL    HW127651   3.780   1.718   9.725
 8548SOL    HW227652   3.725   1.827   9.637
 8549SOL     OW27653   1.926   1.594   9.435
 8549SOL    HW127654   1.907   1.501   9.456
 8549SOL    HW227655   1.893   1.639   9.516
 8550SOL     OW27656   3.546   0.908   9.905
 8550SOL    HW127657   3.621   0.870   9.856
 8550SOL    HW227658   3.525   0.985   9.849
 8551SOL     OW27659   3.509   1.127   9.752
 8551SOL    HW127660   3.600   1.126   9.719
 8551SOL    HW227661   3.515   1.191   9.826
 8552SOL     OW27662   1.983   0.731  10.906
 8552SOL    HW127663   2.073   0.751  10.931
 8552SOL    HW227664   1.940   0.818  10.910
 8553SOL     OW27665   2.452   1.406  10.068
 8553SOL    HW127666   2.414   1.316  10.075
 8553SOL    HW227667   2.442   1.422   9.972
 8554SOL     OW27668   3.165   1.237  10.748
 8554SOL    HW127669   3.191   1.168  10.684
 8554SOL    HW227670   3.218   1.216  10.826
 8555SOL     OW27671   2.691   0.005   9.845
 8555SOL    HW127672   2.723   0.091   9.809
 8555SOL    HW227673   2.596   0.010   9.826
 8556SOL     OW27674   2.073   0.976  10.610
 8556SOL    HW127675   2.153   0.923  10.591
 8556SOL    HW227676   2.006   0.935  10.554
 8557SOL     OW27677   3.397   0.967   9.498
 8557SOL    HW127678   3.317   0.920   9.526
 8557SOL    HW227679   3.434   0.995   9.583
 8558SOL     OW27680   3.062   1.786  10.916
 8558SOL    HW127681   3.063   1.851  10.844
 8558SOL    HW227682   3.075   1.702  10.868
 8559SOL     OW27683   2.161   0.241   0.030
 8559SOL    HW127684   2.225   0.313   0.020
 8559SOL    HW227685   2.077   0.291   0.042
 8560SOL     OW27686   3.332   1.422  10.270
 8560SOL    HW127687   3.267   1.439  10.342
 8560SOL    HW227688   3.311   1.329  10.248
 8561SOL     OW27689   3.515   1.742   9.905
 8561SOL    HW127690   3.501   1.702   9.818
 8561SOL    HW227691   3.495   1.667   9.964
 8562SOL     OW27692   2.456   0.710   9.580
 8562SOL    HW127693   2.457   0.795   9.534
 8562SOL    HW227694   2.382   0.720   9.642
 8563SOL     OW27695   3.128   0.374  10.240
 8563SOL    HW127696   3.036   0.338  10.239
 8563SOL    HW227697   3.170   0.310  10.300
 8564SOL     OW27698   3.434   1.645   9.622
 8564SOL    HW127699   3.528   1.670   9.625
 8564SOL    HW227700   3.422   1.636   9.525
 8565SOL     OW27701   2.687   0.591  10.767
 8565SOL    HW127702   2.649   0.573  10.856
 8565SOL    HW227703   2.629   0.537  10.709
 8566SOL     OW27704   2.869   0.917  10.889
 8566SOL    HW127705   2.914   0.847  10.837
 8566SOL    HW227706   2.799   0.946  10.827
 8567SOL     OW27707   2.866   0.398  10.529
 8567SOL    HW127708   2.798   0.432  10.588
 8567SOL    HW227709   2.818   0.335  10.475
 8568SOL     OW27710   2.917   0.692   9.728
 8568SOL    HW127711   2.934   0.702   9.824
 8568SOL    HW227712   2.831   0.646   9.728
 8569SOL     OW27713   1.973   0.821  10.106
 8569SOL    HW127714   2.047   0.828  10.168
 8569SOL    HW227715   1.927   0.906  10.121
 8570SOL     OW27716   1.972   1.839  10.864
 8570SOL    HW127717   1.963   1.794  10.950
 8570SOL    HW227718   1.880   1.853  10.838
 8571SOL     OW27719   2.750   0.355   9.533
 8571SOL    HW127720   2.798   0.402   9.464
 8571SOL    HW227721   2.718   0.278   9.485
 8572SOL     OW27722   3.218   1.146   9.874
 8572SOL    HW127723   3.295   1.140   9.816
 8572SOL    HW227724   3.166   1.215   9.828
 8573SOL     OW27725   2.399   0.199  10.181
 8573SOL    HW127726   2.431   0.217  10.271
 8573SOL    HW227727   2.402   0.286  10.138
 8574SOL     OW27728   2.853   1.449   9.780
 8574SOL    HW127729   2.804   1.512   9.723
 8574SOL    HW227730   2.861   1.498   9.863
 8575SOL     OW27731   2.198   1.804  10.159
 8575SOL    HW127732   2.244   1.720  10.178
 8575SOL    HW227733   2.266   1.869  10.184
 8576SOL     OW27734   3.672   1.031  10.178
 8576SOL    HW127735   3.612   1.025  10.102
 8576SOL    HW227736   3.613   1.028  10.254
 8577SOL     OW27737   3.104   1.552  10.805
 8577SOL    HW127738   3.085   1.472  10.855
 8577SOL    HW227739   3.044   1.540  10.730
 8578SOL     OW27740   2.167   0.954   9.558
 8578SOL    HW127741   2.250   0.971   9.511
 8578SOL    HW227742   2.139   0.869   9.521
 8579SOL     OW27743   3.351   0.762  10.022
 8579SOL    HW127744   3.358   0.773  10.118
 8579SOL    HW227745   3.424   0.819   9.989
 8580SOL     OW27746   2.330   1.274  11.036
 8580SOL    HW127747   2.299   1.280  10.943
 8580SOL    HW227748   2.277   1.201  11.069
 8581SOL     OW27749   2.948   1.780   9.546
 8581SOL    HW127750   2.881   1.724   9.591
 8581SOL    HW227751   2.972   1.725   9.469
 8582SOL     OW27752   2.057   0.286  10.804
 8582SOL    HW127753   1.978   0.335  10.830
 8582SOL    HW227754   2.046   0.203  10.854
 8583SOL     OW27755   3.483   1.365   9.410
 8583SOL    HW127756   3.442   1.450   9.387
 8583SOL    HW227757   3.421   1.300   9.374
 8584SOL     OW27758   2.322   1.731   9.635
 8584SOL    HW127759   2.370   1.786   9.699
 8584SOL    HW227760   2.391   1.699   9.576
 8585SOL     OW27761   3.268   0.088   9.752
 8585SOL    HW127762   3.265   0.079   9.656
 8585SOL    HW227763   3.362   0.104   9.771
 8586SOL     OW27764   2.104   1.791  10.538
 8586SOL    HW127765   2.171   1.732  10.576
 8586SOL    HW227766   2.088   1.753  10.451
 8587SOL     OW27767   2.822   1.709  10.183
 8587SOL    HW127768   2.902   1.657  10.198
 8587SOL    HW227769   2.775   1.655  10.117
 8588SOL     OW27770   2.232   0.672   9.768
 8588SOL    HW127771   2.254   0.578   9.782
 8588SOL    HW227772   2.139   0.675   9.797
 8589SOL     OW27773   2.507   0.139   9.401
 8589SOL    HW127774   2.541   0.055   9.437
 8589SOL    HW227775   2.447   0.108   9.331
 8590SOL     OW27776   2.613   0.295  11.050
 8590SOL    HW127777   2.688   0.238  11.072
 8590SOL    HW227778   2.546   0.260   0.011
 8591SOL     OW27779   2.749   1.544  10.509
 8591SOL    HW127780   2.741   1.510  10.418
 8591SOL    HW227781   2.820   1.490  10.547
 8592SOL     OW27782   3.199   0.593  10.750
 8592SOL    HW127783   3.248   0.558  10.825
 8592SOL    HW227784   3.242   0.680  10.736
 8593SOL     OW27785   2.677   1.414  10.251
 8593SOL    HW127786   2.764   1.403  10.208
 8593SOL    HW227787   2.616   1.415  10.176
 8594SOL     OW27788   2.816   0.524  10.215
 8594SOL    HW127789   2.787   0.500  10.124
 8594SOL    HW227790   2.819   0.437  10.257
 8595SOL     OW27791   2.402   0.026   9.804
 8595SOL    HW127792   2.318   0.024   9.853
 8595SOL    HW227793   2.386   0.100   9.742
 8596SOL     OW27794   3.304   1.174   9.334
 8596SOL    HW127795   3.330   1.102   9.395
 8596SOL    HW227796   3.219   1.204   9.370
 8597SOL     OW27797   2.159   0.041   9.534
 8597SOL    HW127798   2.214   0.115   9.504
 8597SOL    HW227799   2.222  11.073   9.552
 8598SOL     OW27800   2.805   0.252   9.792
 8598SOL    HW127801   2.776   0.292   9.708
 8598SOL    HW227802   2.902   0.258   9.784
 8599SOL     OW27803   2.953   0.701  10.750
 8599SOL    HW127804   2.884   0.638  10.774
 8599SOL    HW227805   3.036   0.650  10.762
 8600SOL     OW27806   3.086   1.580  10.115
 8600SOL    HW127807   3.096   1.636  10.036
 8600SOL    HW227808   3.163   1.603  10.167
 8601SOL     OW27809   2.334   1.162  10.044
 8601SOL    HW127810   2.258   1.130  10.098
 8601SOL    HW227811   2.300   1.145   9.954
 8602SOL     OW27812   3.118   1.808   9.918
 8602SOL    HW127813   3.165   1.877   9.867
 8602SOL    HW227814   3.073   1.861   9.986
 8603SOL     OW27815   2.915   0.551   9.307
 8603SOL    HW127816   2.859   0.629   9.290
 8603SOL    HW227817   2.982   0.586   9.367
 8604SOL     OW27818   1.951   0.568  10.697
 8604SOL    HW127819   2.047   0.560  10.681
 8604SOL    HW227820   1.949   0.633  10.771
 8605SOL     OW27821   2.428   0.244  10.474
 8605SOL    HW127822   2.466   0.183  10.539
 8605SOL    HW227823   2.333   0.237  10.494
 8606SOL     OW27824   2.750   0.454   9.969
 8606SOL    HW127825   2.695   0.506   9.909
 8606SOL    HW227826   2.766   0.374   9.916
 8607SOL     OW27827   2.859   0.011  10.073
 8607SOL    HW127828   2.804   0.040   9.998
 8607SOL    HW227829   2.832  11.019  10.082
 8608SOL     OW27830   3.291   1.162  10.200
 8608SOL    HW127831   3.213   1.107  10.211
 8608SOL    HW227832   3.299   1.165  10.104
 8609SOL     OW27833   3.707   0.805   9.693
 8609SOL    HW127834   3.765   0.760   9.758
 8609SOL    HW227835   3.692   0.733   9.628
 8610SOL     OW27836   2.361   1.409   9.430
 8610SOL    HW127837   2.278   1.403   9.481
 8610SOL    HW227838   2.342   1.355   9.353
 8611SOL     OW27839   3.541   1.276   9.971
 8611SOL    HW127840   3.639   1.282   9.976
 8611SOL    HW227841   3.511   1.367   9.986
 8612SOL     OW27842   3.272   0.600   9.368
 8612SOL    HW127843   3.221   0.571   9.446
 8612SOL    HW227844   3.358   0.558   9.384
 8613SOL     OW27845   2.373   0.241   9.620
 8613SOL    HW127846   2.431   0.216   9.546
 8613SOL    HW227847   2.344   0.331   9.591
 8614SOL     OW27848   3.626   1.223  10.866
 8614SOL    HW127849   3.718   1.201  10.886
 8614SOL    HW227850   3.625   1.318  10.887
 8615SOL     OW27851   2.919   1.380  10.681
 8615SOL    HW127852   2.841   1.331  10.712
 8615SOL    HW227853   2.991   1.318  10.702
 8616SOL     OW27854   2.979   1.234  10.412
 8616SOL    HW127855   2.896   1.245  10.461
 8616SOL    HW227856   2.957   1.271  10.325
 8617SOL     OW27857   3.475   1.085  10.389
 8617SOL    HW127858   3.487   1.157  10.455
 8617SOL    HW227859   3.417   1.129  10.324
 8618SOL     OW27860   2.742   0.116  10.687
 8618SOL    HW127861   2.776   0.088  10.600
 8618SOL    HW227862   2.826   0.136  10.733
 8619SOL     OW27863   2.577   1.060   9.654
 8619SOL    HW127864   2.560   1.034   9.746
 8619SOL    HW227865   2.655   1.003   9.632
 8620SOL     OW27866   2.297   0.811  10.580
 8620SOL    HW127867   2.366   0.807  10.649
 8620SOL    HW227868   2.258   0.722  10.587
 8621SOL     OW27869   3.139   0.412  10.555
 8621SOL    HW127870   3.148   0.479  10.625
 8621SOL    HW227871   3.043   0.414  10.535
 8622SOL     OW27872   1.936   1.566  10.642
 8622SOL    HW127873   1.912   1.658  10.621
 8622SOL    HW227874   2.033   1.569  10.649
 8623SOL     OW27875   2.228   1.120   9.808
 8623SOL    HW127876   2.247   1.185   9.739
 8623SOL    HW227877   2.199   1.043   9.757
 8624SOL     OW27878   2.404   0.543  10.140
 8624SOL    HW127879   2.428   0.614  10.076
 8624SOL    HW227880   2.472   0.553  10.209
 8625SOL     OW27881   3.087   1.338   9.701
 8625SOL    HW127882   3.127   1.417   9.741
 8625SOL    HW227883   2.993   1.351   9.726
 8626SOL     OW27884   3.152   1.457  10.469
 8626SOL    HW127885   3.208   1.457  10.549
 8626SOL    HW227886   3.093   1.382  10.482
 8627SOL     OW27887   3.451   0.622   9.782
 8627SOL    HW127888   3.402   0.688   9.833
 8627SOL    HW227889   3.489   0.675   9.710
 8628SOL     OW27890   2.206   1.497  10.634
 8628SOL    HW127891   2.190   1.471  10.541
 8628SOL    HW227892   2.301   1.522  10.633
 8629SOL     OW27893   2.303   0.703  10.932
 8629SOL    HW127894   2.368   0.747  10.874
 8629SOL    HW227895   2.312   0.611  10.906
 8630SOL     OW27896   3.459   0.756  10.976
 8630SOL    HW127897   3.396   0.827  10.968
 8630SOL    HW227898   3.539   0.798  10.939
 8631SOL     OW27899   2.484   0.869  10.381
 8631SOL    HW127900   2.490   0.964  10.361
 8631SOL    HW227901   2.415   0.865  10.450
 8632SOL     OW27902   3.233   0.834  10.319
 8632SOL    HW127903   3.142   0.825  10.287
 8632SOL    HW227904   3.228   0.807  10.411
 8633SOL     OW27905   3.087   0.517   9.562
 8633SOL    HW127906   3.099   0.440   9.620
 8633SOL    HW227907   3.025   0.571   9.613
 8634SOL     OW27908   2.158   0.214  10.553
 8634SOL    HW127909   2.111   0.249  10.631
 8634SOL    HW227910   2.147   0.119  10.564
 8635SOL     OW27911   1.903   1.294  10.589
 8635SOL    HW127912   1.923   1.246  10.671
 8635SOL    HW227913   1.904   1.387  10.619
 8636SOL     OW27914   2.585   0.613  10.341
 8636SOL    HW127915   2.669   0.606  10.292
 8636SOL    HW227916   2.559   0.708  10.333
 8637SOL     OW27917   2.159   0.026   9.928
 8637SOL    HW127918   2.138   0.121   9.938
 8637SOL    HW227919   2.173   0.004  10.022
 8638SOL     OW27920   3.454   0.391   9.648
 8638SOL    HW127921   3.497   0.329   9.708
 8638SOL    HW227922   3.446   0.471   9.704
 8639SOL     OW27923   2.931   0.755  10.275
 8639SOL    HW127924   2.899   0.774  10.366
 8639SOL    HW227925   2.889   0.668  10.258
 8640SOL     OW27926   2.850   1.549  10.968
 8640SOL    HW127927   2.837   1.617  10.899
 8640SOL    HW227928   2.809   1.472  10.926
 8641SOL     OW27929   3.708   1.480  10.905
 8641SOL    HW127930   3.732   1.521  10.820
 8641SOL    HW227931   3.783   1.504  10.962
 8642SOL     OW27932   2.228   0.904  11.082
 8642SOL    HW127933   2.310   0.914   0.032
 8642SOL    HW227934   2.249   0.823  11.030
 8643SOL     OW27935   3.363   0.264   9.420
 8643SOL    HW127936   3.290   0.208   9.453
 8643SOL    HW227937   3.394   0.310   9.500
 8644SOL     OW27938   3.152   0.834   9.327
 8644SOL    HW127939   3.206   0.753   9.338
 8644SOL    HW227940   3.179   0.862   9.237
 8645SOL     OW27941   2.928   1.363  10.167
 8645SOL    HW127942   2.934   1.290  10.102
 8645SOL    HW227943   2.994   1.428  10.135
 8646SOL     OW27944   2.170   0.820  10.316
 8646SOL    HW127945   2.266   0.822  10.314
 8646SOL    HW227946   2.153   0.725  10.324
 8647SOL     OW27947   2.194   0.539  10.305
 8647SOL    HW127948   2.149   0.454  10.290
 8647SOL    HW227949   2.263   0.537  10.236
 8648SOL     OW27950   2.995   0.220  10.773
 8648SOL    HW127951   3.005   0.259  10.861
 8648SOL    HW227952   3.031   0.288  10.715
 8649SOL     OW27953   1.867   1.328   9.512
 8649SOL    HW127954   1.774   1.343   9.481
 8649SOL    HW227955   1.863   1.236   9.543
 8650SOL     OW27956   1.947   1.780  10.245
 8650SOL    HW127957   1.915   1.705  10.192
 8650SOL    HW227958   2.038   1.791  10.211
 8651SOL     OW27959   2.347   1.587  10.245
 8651SOL    HW127960   2.420   1.648  10.269
 8651SOL    HW227961   2.393   1.523  10.187
 8652SOL     OW27962   2.833   0.789  10.530
 8652SOL    HW127963   2.889   0.753  10.602
 8652SOL    HW227964   2.745   0.764  10.561
 8653SOL     OW27965   1.878   0.506  10.449
 8653SOL    HW127966   1.955   0.500  10.391
 8653SOL    HW227967   1.917   0.528  10.536
 8654SOL     OW27968   2.673   0.580   9.698
 8654SOL    HW127969   2.685   0.506   9.636
 8654SOL    HW227970   2.595   0.626   9.660
 8655SOL     OW27971   3.468   0.602  10.459
 8655SOL    HW127972   3.462   0.558  10.545
 8655SOL    HW227973   3.563   0.588  10.442
 8656SOL     OW27974   2.100   1.547  11.033
 8656SOL    HW127975   2.045   1.575   0.008
 8656SOL    HW227976   2.138   1.465  11.065
 8657SOL     OW27977   2.560   0.473  10.567
 8657SOL    HW127978   2.512   0.393  10.537
 8657SOL    HW227979   2.557   0.529  10.487
 8658SOL     OW27980   2.801   1.702  10.742
 8658SOL    HW127981   2.775   1.662  10.658
 8658SOL    HW227982   2.785   1.797  10.729
 8659SOL     OW27983   2.310   0.477   9.509
 8659SOL    HW127984   2.373   0.550   9.517
 8659SOL    HW227985   2.226   0.527   9.500
 8660SOL     OW27986   1.995   1.146  10.793
 8660SOL    HW127987   1.999   1.092  10.875
 8660SOL    HW227988   2.029   1.081  10.726
 8661SOL     OW27989   3.167   1.051  10.539
 8661SOL    HW127990   3.215   1.023  10.461
 8661SOL    HW227991   3.096   1.107  10.502
 8662SOL     OW27992   3.172   0.850   9.601
 8662SOL    HW127993   3.090   0.821   9.644
 8662SOL    HW227994   3.149   0.849   9.507
 8663SOL     OW27995   3.619   1.755  10.438
 8663SOL    HW127996   3.689   1.781  10.376
 8663SOL    HW227997   3.617   1.658  10.427
 8664SOL     OW27998   3.100   1.722  10.435
 8664SOL    HW127999   3.187   1.751  10.403
 8664SOL    HW228000   3.113   1.625  10.443
 8665SOL     OW28001   1.968   1.245  10.335
 8665SOL    HW128002   1.948   1.264  10.430
 8665SOL    HW228003   1.883   1.213  10.304
 8666SOL     OW28004   3.554   0.114   9.813
 8666SOL    HW128005   3.630   0.134   9.755
 8666SOL    HW228006   3.589   0.046   9.872
 8667SOL     OW28007   3.224   1.579   9.802
 8667SOL    HW128008   3.283   1.595   9.727
 8667SOL    HW228009   3.182   1.666   9.817
 8668SOL     OW28010   3.126   0.926  10.006
 8668SOL    HW128011   3.205   0.869  10.004
 8668SOL    HW228012   3.153   0.998   9.945
 8669SOL     OW28013   2.676   1.257  10.748
 8669SOL    HW128014   2.643   1.298  10.831
 8669SOL    HW228015   2.608   1.285  10.684
 8670SOL     OW28016   2.528   1.611   9.465
 8670SOL    HW128017   2.543   1.623   9.369
 8670SOL    HW228018   2.468   1.533   9.463
 8671SOL     OW28019   3.487   1.712  10.681
 8671SOL    HW128020   3.534   1.734  10.599
 8671SOL    HW228021   3.469   1.800  10.719
 8672SOL     OW28022   3.732   0.123  10.244
 8672SOL    HW128023   3.732   0.037  10.199
 8672SOL    HW228024   3.646   0.161  10.215
 8673SOL     OW28025   2.110   0.292  10.006
 8673SOL    HW128026   2.022   0.331   9.985
 8673SOL    HW228027   2.114   0.304  10.102
 8674SOL     OW28028   3.046   1.626   9.343
 8674SOL    HW128029   3.056   1.530   9.356
 8674SOL    HW228030   2.993   1.631   9.262
 8675SOL     OW28031   2.679   0.984  10.712
 8675SOL    HW128032   2.707   0.978  10.619
 8675SOL    HW228033   2.681   1.081  10.728
 8676SOL     OW28034   2.779   0.903   9.589
 8676SOL    HW128035   2.850   0.934   9.530
 8676SOL    HW228036   2.817   0.826   9.633
 8677SOL     OW28037   3.404   1.624   9.349
 8677SOL    HW128038   3.310   1.642   9.346
 8677SOL    HW228039   3.429   1.626   9.254
 8678SOL     OW28040   2.227   1.277  10.796
 8678SOL    HW128041   2.211   1.351  10.735
 8678SOL    HW228042   2.140   1.232  10.795
 8679SOL     OW28043   3.472   1.286  10.569
 8679SOL    HW128044   3.543   1.274  10.635
 8679SOL    HW228045   3.414   1.351  10.613
 8680SOL     OW28046   2.919   1.137  10.032
 8680SOL    HW128047   2.844   1.083  10.062
 8680SOL    HW228048   2.982   1.069  10.004
 8681SOL     OW28049   2.905   0.227  10.278
 8681SOL    HW128050   2.881   0.175  10.200
 8681SOL    HW228051   2.898   0.160  10.347
 8682SOL     OW28052   2.476   1.483   9.803
 8682SOL    HW128053   2.520   1.436   9.730
 8682SOL    HW228054   2.402   1.525   9.760
 8683SOL     OW28055   3.565   0.388  10.688
 8683SOL    HW128056   3.638   0.453  10.694
 8683SOL    HW228057   3.599   0.330  10.617
 8684SOL     OW28058   2.115   1.392   9.586
 8684SOL    HW128059   2.019   1.380   9.576
 8684SOL    HW228060   2.123   1.409   9.682
 8685SOL     OW28061   1.998   1.027  11.023
 8685SOL    HW128062   1.931   1.001  11.087
 8685SOL    HW228063   2.078   0.983  11.057
 8686SOL     OW28064   2.518   0.236  10.775
 8686SOL    HW128065   2.596   0.189  10.739
 8686SOL    HW228066   2.545   0.253  10.867
 8687SOL     OW28067   1.934   0.359   9.344
 8687SOL    HW128068   1.844   0.366   9.312
 8687SOL    HW228069   1.979   0.422   9.285
 8688SOL     OW28070   3.306   0.849  10.723
 8688SOL    HW128071   3.257   0.922  10.684
 8688SOL    HW228072   3.395   0.863  10.686
 8689SOL     OW28073   1.897   0.170   9.630
 8689SOL    HW128074   1.893   0.227   9.552
 8689SOL    HW228075   1.986   0.131   9.622
 8690SOL     OW28076   3.065   1.356   9.424
 8690SOL    HW128077   2.978   1.313   9.427
 8690SOL    HW228078   3.090   1.356   9.518
 8691SOL     OW28079   2.491   0.797  10.767
 8691SOL    HW128080   2.547   0.876  10.752
 8691SOL    HW228081   2.556   0.726  10.767
 8692SOL     OW28082   3.374   1.750  10.295
 8692SOL    HW128083   3.408   1.793  10.215
 8692SOL    HW228084   3.450   1.755  10.355
 8693SOL     OW28085   2.585   0.587  11.025
 8693SOL    HW128086   2.618   0.628   0.004
 8693SOL    HW228087   2.593   0.492  11.044
 8694SOL     OW28088   2.232   1.720  10.867
 8694SOL    HW128089   2.157   1.779  10.851
 8694SOL    HW228090   2.195   1.657  10.931
 8695SOL     OW28091   3.526   0.889  10.560
 8695SOL    HW128092   3.516   0.810  10.505
 8695SOL    HW228093   3.513   0.961  10.495
 8696SOL     OW28094   3.092   0.308   9.766
 8696SOL    HW128095   3.151   0.231   9.766
 8696SOL    HW228096   3.122   0.359   9.844
 8697SOL     OW28097   2.457   0.746   9.965
 8697SOL    HW128098   2.482   0.840   9.954
 8697SOL    HW228099   2.384   0.736   9.903
 8698SOL     OW28100   3.633   0.353  10.945
 8698SOL    HW128101   3.600   0.367  10.854
 8698SOL    HW228102   3.554   0.324  10.992
 8699SOL     OW28103   3.620   0.934  10.817
 8699SOL    HW128104   3.618   1.031  10.829
 8699SOL    HW228105   3.601   0.924  10.722
 8700SOL     OW28106   2.716   1.361   9.344
 8700SOL    HW128107   2.679   1.383   9.430
 8700SOL    HW228108   2.746   1.446   9.309
 8701SOL     OW28109   2.520   1.797  10.255
 8701SOL    HW128110   2.501   1.890  10.231
 8701SOL    HW228111   2.610   1.783  10.223
 8702SOL     OW28112   2.749   0.967  10.159
 8702SOL    HW128113   2.792   0.888  10.195
 8702SOL    HW228114   2.713   1.011  10.238
 8703SOL     OW28115   2.962   0.995   9.412
 8703SOL    HW128116   2.938   1.052   9.337
 8703SOL    HW228117   3.025   0.932   9.371
 8704SOL     OW28118   3.709   1.549  10.164
 8704SOL    HW128119   3.633   1.537  10.105
 8704SOL    HW228120   3.680   1.504  10.245
 8705SOL     OW28121   1.951   1.260   9.979
 8705SOL    HW128122   1.934   1.201  10.054
 8705SOL    HW228123   2.032   1.222   9.942
 8706SOL     OW28124   2.542   1.413  10.929
 8706SOL    HW128125   2.473   1.362  10.974
 8706SOL    HW228126   2.495   1.493  10.903
 8707SOL     OW28127   3.657   0.195  10.522
 8707SOL    HW128128   3.644   0.100  10.538
 8707SOL    HW228129   3.688   0.195  10.431
 8708SOL     OW28130   2.283   0.409   9.823
 8708SOL    HW128131   2.321   0.337   9.770
 8708SOL    HW228132   2.239   0.363   9.896
 8709SOL     OW28133   3.587   1.490  10.408
 8709SOL    HW128134   3.500   1.468  10.370
 8709SOL    HW228135   3.589   1.431  10.485
 8710SOL     OW28136   2.207   0.552  10.594
 8710SOL    HW128137   2.265   0.490  10.641
 8710SOL    HW228138   2.215   0.527  10.500
 8711SOL     OW28139   2.687   1.586   9.982
 8711SOL    HW128140   2.677   1.616   9.891
 8711SOL    HW228141   2.602   1.543   9.999
 8712SOL     OW28142   3.312   0.268  10.417
 8712SOL    HW128143   3.334   0.182  10.455
 8712SOL    HW228144   3.253   0.306  10.485
 8713SOL     OW28145   2.860   0.011  10.464
 8713SOL    HW128146   2.814  11.027  10.468
 8713SOL    HW228147   2.954  11.085  10.470
 8714SOL     OW28148   2.644   1.338   9.625
 8714SOL    HW128149   2.614   1.246   9.624
 8714SOL    HW228150   2.723   1.333   9.681
 8715SOL     OW28151   2.470   1.559  10.611
 8715SOL    HW128152   2.472   1.650  10.647
 8715SOL    HW228153   2.548   1.561  10.553
 8716SOL     OW28154   3.184   0.071   9.488
 8716SOL    HW128155   3.194  11.099   9.426
 8716SOL    HW228156   3.094   0.056   9.524
 8717SOL     OW28157   3.150   0.464   9.981
 8717SOL    HW128158   3.094   0.542   9.965
 8717SOL    HW228159   3.118   0.432  10.067
 8718SOL     OW28160   3.493   0.227  10.179
 8718SOL    HW128161   3.420   0.210  10.239
 8718SOL    HW228162   3.466   0.310  10.136
 8719SOL     OW28163   1.910   1.067   9.621
 8719SOL    HW128164   2.000   1.059   9.585
 8719SOL    HW228165   1.889   0.973   9.639
 8720SOL     OW28166   2.731   1.646   9.638
 8720SOL    HW128167   2.655   1.630   9.577
 8720SOL    HW228168   2.712   1.732   9.680
 8721SOL     OW28169   2.104   2.516   0.145
 8721SOL    HW128170   2.019   2.480   0.174
 8721SOL    HW228171   2.118   2.475   0.059
 8722SOL     OW28172   2.091   2.143   1.003
 8722SOL    HW128173   2.115   2.118   1.094
 8722SOL    HW228174   2.004   2.099   0.994
 8723SOL     OW28175   1.871   2.262   0.635
 8723SOL    HW128176   1.790   2.284   0.684
 8723SOL    HW228177   1.843   2.184   0.586
 8724SOL     OW28178   2.433   3.168   1.194
 8724SOL    HW128179   2.342   3.164   1.160
 8724SOL    HW228180   2.439   3.260   1.223
 8725SOL     OW28181   3.406   3.387   0.717
 8725SOL    HW128182   3.368   3.355   0.801
 8725SOL    HW228183   3.330   3.382   0.656
 8726SOL     OW28184   2.985   2.556   0.714
 8726SOL    HW128185   3.025   2.639   0.685
 8726SOL    HW228186   2.955   2.578   0.803
 8727SOL     OW28187   3.635   2.460   0.212
 8727SOL    HW128188   3.575   2.484   0.140
 8727SOL    HW228189   3.583   2.394   0.262
 8728SOL     OW28190   2.591   3.024   1.022
 8728SOL    HW128191   2.532   3.070   1.085
 8728SOL    HW228192   2.634   3.101   0.981
 8729SOL     OW28193   2.738   2.618   1.797
 8729SOL    HW128194   2.715   2.681   1.867
 8729SOL    HW228195   2.763   2.676   1.722
 8730SOL     OW28196   2.551   2.872   0.644
 8730SOL    HW128197   2.613   2.851   0.716
 8730SOL    HW228198   2.480   2.921   0.689
 8731SOL     OW28199   2.558   3.015   1.806
 8731SOL    HW128200   2.602   3.099   1.829
 8731SOL    HW228201   2.468   3.044   1.782
 8732SOL     OW28202   2.183   3.290   1.079
 8732SOL    HW128203   2.110   3.244   1.033
 8732SOL    HW228204   2.228   3.339   1.008
 8733SOL     OW28205   3.331   3.363   1.368
 8733SOL    HW128206   3.386   3.444   1.377
 8733SOL    HW228207   3.264   3.377   1.436
 8734SOL     OW28208   2.286   2.271   1.497
 8734SOL    HW128209   2.362   2.215   1.518
 8734SOL    HW228210   2.212   2.209   1.507
 8735SOL     OW28211   3.474   2.317   0.737
 8735SOL    HW128212   3.388   2.340   0.697
 8735SOL    HW228213   3.475   2.378   0.812
 8736SOL     OW28214   2.089   3.578   0.505
 8736SOL    HW128215   2.126   3.664   0.536
 8736SOL    HW228216   2.125   3.573   0.416
 8737SOL     OW28217   2.983   3.206   1.652
 8737SOL    HW128218   3.025   3.212   1.738
 8737SOL    HW228219   2.941   3.119   1.660
 8738SOL     OW28220   2.112   3.292   0.527
 8738SOL    HW128221   2.108   3.388   0.540
 8738SOL    HW228222   2.046   3.260   0.590
 8739SOL     OW28223   2.128   2.951   0.906
 8739SOL    HW128224   2.131   2.876   0.967
 8739SOL    HW228225   2.072   3.015   0.955
 8740SOL     OW28226   2.454   3.661   1.407
 8740SOL    HW128227   2.387   3.629   1.470
 8740SOL    HW228228   2.478   3.748   1.445
 8741SOL     OW28229   2.449   2.845   0.159
 8741SOL    HW128230   2.486   2.907   0.094
 8741SOL    HW228231   2.486   2.881   0.242
 8742SOL     OW28232   3.479   1.965   1.496
 8742SOL    HW128233   3.479   2.040   1.435
 8742SOL    HW228234   3.481   2.009   1.582
 8743SOL     OW28235   1.984   2.526   0.570
 8743SOL    HW128236   1.952   2.436   0.588
 8743SOL    HW228237   1.973   2.571   0.656
 8744SOL     OW28238   3.708   3.595   0.364
 8744SOL    HW128239   3.772   3.576   0.436
 8744SOL    HW228240   3.727   3.688   0.346
 8745SOL     OW28241   1.936   3.461   0.126
 8745SOL    HW128242   1.914   3.371   0.156
 8745SOL    HW228243   1.902   3.514   0.200
 8746SOL     OW28244   3.563   2.769   0.617
 8746SOL    HW128245   3.652   2.747   0.585
 8746SOL    HW228246   3.534   2.837   0.554
 8747SOL     OW28247   3.503   2.979   0.446
 8747SOL    HW128248   3.572   3.008   0.384
 8747SOL    HW228249   3.507   3.049   0.515
 8748SOL     OW28250   1.984   2.610   1.574
 8748SOL    HW128251   2.080   2.625   1.576
 8748SOL    HW228252   1.953   2.687   1.625
 8749SOL     OW28253   2.444   3.264   0.743
 8749SOL    HW128254   2.416   3.170   0.750
 8749SOL    HW228255   2.434   3.280   0.648
 8750SOL     OW28256   3.143   3.087   1.420
 8750SOL    HW128257   3.178   3.016   1.364
 8750SOL    HW228258   3.194   3.076   1.503
 8751SOL     OW28259   2.701   1.869   0.476
 8751SOL    HW128260   2.723   1.964   0.479
 8751SOL    HW228261   2.604   1.870   0.492
 8752SOL     OW28262   2.032   2.835   1.254
 8752SOL    HW128263   2.124   2.805   1.247
 8752SOL    HW228264   1.983   2.759   1.221
 8753SOL     OW28265   3.403   2.836   0.215
 8753SOL    HW128266   3.322   2.790   0.243
 8753SOL    HW228267   3.438   2.867   0.300
 8754SOL     OW28268   3.056   3.658   1.613
 8754SOL    HW128269   3.050   3.722   1.541
 8754SOL    HW228270   3.070   3.575   1.565
 8755SOL     OW28271   2.216   2.114   1.780
 8755SOL    HW128272   2.244   2.178   1.846
 8755SOL    HW228273   2.126   2.094   1.810
 8756SOL     OW28274   3.331   3.288   0.964
 8756SOL    HW128275   3.267   3.305   1.036
 8756SOL    HW228276   3.302   3.200   0.933
 8757SOL     OW28277   3.521   3.607   0.606
 8757SOL    HW128278   3.523   3.567   0.518
 8757SOL    HW228279   3.490   3.532   0.659
 8758SOL     OW28280   2.436   2.573   0.258
 8758SOL    HW128281   2.457   2.660   0.220
 8758SOL    HW228282   2.374   2.593   0.331
 8759SOL     OW28283   3.131   2.190   0.914
 8759SOL    HW128284   3.043   2.158   0.942
 8759SOL    HW228285   3.190   2.151   0.982
 8760SOL     OW28286   3.429   3.520   0.322
 8760SOL    HW128287   3.524   3.540   0.319
 8760SOL    HW228288   3.410   3.504   0.228
 8761SOL     OW28289   2.673   2.494   1.442
 8761SOL    HW128290   2.655   2.459   1.532
 8761SOL    HW228291   2.626   2.427   1.388
 8762SOL     OW28292   3.258   2.347   1.670
 8762SOL    HW128293   3.257   2.404   1.750
 8762SOL    HW228294   3.320   2.276   1.695
 8763SOL     OW28295   2.829   2.751   1.583
 8763SOL    HW128296   2.872   2.670   1.547
 8763SOL    HW228297   2.782   2.783   1.504
 8764SOL     OW28298   2.822   2.264   1.243
 8764SOL    HW128299   2.730   2.280   1.269
 8764SOL    HW228300   2.812   2.219   1.158
 8765SOL     OW28301   2.896   2.547   0.408
 8765SOL    HW128302   2.908   2.564   0.502
 8765SOL    HW228303   2.812   2.497   0.407
 8766SOL     OW28304   1.963   2.680   0.793
 8766SOL    HW128305   2.037   2.677   0.856
 8766SOL    HW228306   1.917   2.761   0.821
 8767SOL     OW28307   1.964   3.705   1.567
 8767SOL    HW128308   1.980   3.686   1.662
 8767SOL    HW228309   1.868   3.692   1.560
 8768SOL     OW28310   2.742   2.243   0.205
 8768SOL    HW128311   2.796   2.293   0.140
 8768SOL    HW228312   2.755   2.151   0.177
 8769SOL     OW28313   3.586   2.453   1.840
 8769SOL    HW128314   3.551   2.530   1.791
 8769SOL    HW228315   3.604   2.392   1.767
 8770SOL     OW28316   3.223   3.020   0.562
 8770SOL    HW128317   3.309   3.011   0.517
 8770SOL    HW228318   3.177   3.083   0.503
 8771SOL     OW28319   2.415   2.066   0.897
 8771SOL    HW128320   2.425   2.080   0.993
 8771SOL    HW228321   2.407   2.156   0.861
 8772SOL     OW28322   2.859   3.298   0.484
 8772SOL    HW128323   2.826   3.372   0.430
 8772SOL    HW228324   2.866   3.339   0.572
 8773SOL     OW28325   2.205   3.675   0.855
 8773SOL    HW128326   2.256   3.592   0.860
 8773SOL    HW228327   2.273   3.742   0.876
 8774SOL     OW28328   3.677   2.908   0.891
 8774SOL    HW128329   3.624   2.900   0.810
 8774SOL    HW228330   3.611   2.900   0.961
 8775SOL     OW28331   3.089   3.415   1.489
 8775SOL    HW128332   3.064   3.347   1.554
 8775SOL    HW228333   3.040   3.385   1.411
 8776SOL     OW28334   2.183   2.826   0.274
 8776SOL    HW128335   2.269   2.817   0.231
 8776SOL    HW228336   2.141   2.740   0.257
 8777SOL     OW28337   3.335   2.612   0.702
 8777SOL    HW128338   3.329   2.577   0.793
 8777SOL    HW228339   3.416   2.666   0.705
 8778SOL     OW28340   2.322   3.134   1.727
 8778SOL    HW128341   2.283   3.133   1.637
 8778SOL    HW228342   2.241   3.139   1.781
 8779SOL     OW28343   2.948   3.627   0.208
 8779SOL    HW128344   2.901   3.571   0.272
 8779SOL    HW228345   2.984   3.563   0.144
 8780SOL     OW28346   2.031   2.154   1.501
 8780SOL    HW128347   1.958   2.206   1.538
 8780SOL    HW228348   2.034   2.078   1.561
 8781SOL     OW28349   3.474   3.205   0.103
 8781SOL    HW128350   3.437   3.290   0.073
 8781SOL    HW228351   3.424   3.141   0.050
 8782SOL     OW28352   2.323   3.613   0.305
 8782SOL    HW128353   2.364   3.654   0.383
 8782SOL    HW228354   2.399   3.602   0.246
 8783SOL     OW28355   3.263   2.004   0.451
 8783SOL    HW128356   3.259   1.943   0.376
 8783SOL    HW228357   3.358   2.005   0.472
 8784SOL     OW28358   2.106   3.656   1.233
 8784SOL    HW128359   2.165   3.591   1.273
 8784SOL    HW228360   2.096   3.624   1.143
 8785SOL     OW28361   2.822   3.558   0.877
 8785SOL    HW128362   2.906   3.512   0.889
 8785SOL    HW228363   2.776   3.501   0.812
 8786SOL     OW28364   2.233   2.553   0.462
 8786SOL    HW128365   2.248   2.456   0.468
 8786SOL    HW228366   2.144   2.559   0.501
 8787SOL     OW28367   3.398   2.120   1.722
 8787SOL    HW128368   3.398   2.121   1.821
 8787SOL    HW228369   3.340   2.044   1.706
 8788SOL     OW28370   2.484   1.956   0.103
 8788SOL    HW128371   2.578   1.948   0.123
 8788SOL    HW228372   2.478   1.932   0.010
 8789SOL     OW28373   2.642   2.140   1.731
 8789SOL    HW128374   2.720   2.082   1.741
 8789SOL    HW228375   2.586   2.107   1.804
 8790SOL     OW28376   2.743   3.407   1.196
 8790SOL    HW128377   2.736   3.379   1.103
 8790SOL    HW228378   2.807   3.344   1.233
 8791SOL     OW28379   3.194   2.450   1.432
 8791SOL    HW128380   3.231   2.418   1.517
 8791SOL    HW228381   3.241   2.535   1.419
 8792SOL     OW28382   2.662   3.275   0.929
 8792SOL    HW128383   2.747   3.265   0.881
 8792SOL    HW228384   2.596   3.274   0.858
 8793SOL     OW28385   2.808   2.366   0.909
 8793SOL    HW128386   2.787   2.353   0.814
 8793SOL    HW228387   2.839   2.278   0.933
 8794SOL     OW28388   2.439   1.903   0.494
 8794SOL    HW128389   2.360   1.913   0.552
 8794SOL    HW228390   2.425   1.981   0.436
 8795SOL     OW28391   3.297   3.018   0.009
 8795SOL    HW128392   3.332   2.961   0.080
 8795SOL    HW228393   3.222   3.062   0.052
 8796SOL     OW28394   2.137   1.926   0.220
 8796SOL    HW128395   2.168   1.973   0.141
 8796SOL    HW228396   2.209   1.862   0.235
 8797SOL     OW28397   2.797   2.123   0.465
 8797SOL    HW128398   2.781   2.173   0.384
 8797SOL    HW228399   2.893   2.134   0.476
 8798SOL     OW28400   2.949   2.538   1.476
 8798SOL    HW128401   2.891   2.461   1.472
 8798SOL    HW228402   3.039   2.500   1.467
 8799SOL     OW28403   3.096   3.437   0.796
 8799SOL    HW128404   3.101   3.501   0.724
 8799SOL    HW228405   3.168   3.463   0.853
 8800SOL     OW28406   2.339   3.009   0.739
 8800SOL    HW128407   2.266   2.985   0.800
 8800SOL    HW228408   2.296   2.992   0.653
 8801SOL     OW28409   3.124   3.673   0.615
 8801SOL    HW128410   3.171   3.743   0.567
 8801SOL    HW228411   3.077   3.723   0.683
 8802SOL     OW28412   2.894   2.388   0.037
 8802SOL    HW128413   2.857   2.478   0.031
 8802SOL    HW228414   2.984   2.405   0.068
 8803SOL     OW28415   1.900   2.432   1.385
 8803SOL    HW128416   1.995   2.415   1.374
 8803SOL    HW228417   1.901   2.505   1.450
 8804SOL     OW28418   2.434   2.093   1.168
 8804SOL    HW128419   2.478   2.029   1.226
 8804SOL    HW228420   2.342   2.085   1.200
 8805SOL     OW28421   2.750   2.306   0.658
 8805SOL    HW128422   2.697   2.364   0.602
 8805SOL    HW228423   2.761   2.228   0.601
 8806SOL     OW28424   2.857   1.948   0.771
 8806SOL    HW128425   2.829   1.928   0.681
 8806SOL    HW228426   2.848   1.862   0.815
 8807SOL     OW28427   3.284   3.042   0.871
 8807SOL    HW128428   3.209   2.982   0.883
 8807SOL    HW228429   3.293   3.042   0.775
 8808SOL     OW28430   3.353   2.445   0.971
 8808SOL    HW128431   3.298   2.367   0.988
 8808SOL    HW228432   3.407   2.452   1.051
 8809SOL     OW28433   3.735   2.685   0.354
 8809SOL    HW128434   3.773   2.629   0.423
 8809SOL    HW228435   3.693   2.618   0.297
 8810SOL     OW28436   2.352   3.308   0.140
 8810SOL    HW128437   2.273   3.284   0.191
 8810SOL    HW228438   2.348   3.245   0.065
 8811SOL     OW28439   3.532   3.155   0.653
 8811SOL    HW128440   3.628   3.159   0.664
 8811SOL    HW228441   3.502   3.243   0.683
 8812SOL     OW28442   3.253   2.465   0.083
 8812SOL    HW128443   3.213   2.434   0.167
 8812SOL    HW228444   3.308   2.391   0.058
 8813SOL     OW28445   2.378   2.088   0.317
 8813SOL    HW128446   2.402   2.039   0.235
 8813SOL    HW228447   2.348   2.173   0.278
 8814SOL     OW28448   3.589   3.093   1.572
 8814SOL    HW128449   3.676   3.052   1.581
 8814SOL    HW228450   3.612   3.186   1.589
 8815SOL     OW28451   2.931   3.221   1.327
 8815SOL    HW128452   2.857   3.192   1.382
 8815SOL    HW228453   3.005   3.173   1.371
 8816SOL     OW28454   3.471   3.462   1.633
 8816SOL    HW128455   3.473   3.499   1.543
 8816SOL    HW228456   3.553   3.409   1.635
 8817SOL     OW28457   2.988   3.081   1.091
 8817SOL    HW128458   2.929   3.109   1.162
 8817SOL    HW228459   2.948   3.121   1.012
 8818SOL     OW28460   3.458   2.954   1.075
 8818SOL    HW128461   3.470   3.020   1.146
 8818SOL    HW228462   3.402   3.003   1.013
 8819SOL     OW28463   2.788   1.965   1.414
 8819SOL    HW128464   2.813   1.949   1.322
 8819SOL    HW228465   2.867   2.010   1.449
 8820SOL     OW28466   2.865   2.973   1.738
 8820SOL    HW128467   2.775   3.003   1.760
 8820SOL    HW228468   2.849   2.897   1.679
 8821SOL     OW28469   2.595   2.938   0.379
 8821SOL    HW128470   2.584   2.914   0.474
 8821SOL    HW228471   2.673   2.884   0.352
 8822SOL     OW28472   2.276   2.668   1.263
 8822SOL    HW128473   2.350   2.664   1.327
 8822SOL    HW228474   2.235   2.580   1.274
 8823SOL     OW28475   3.139   2.245   1.261
 8823SOL    HW128476   3.159   2.320   1.321
 8823SOL    HW228477   3.048   2.264   1.232
 8824SOL     OW28478   1.947   3.432   1.348
 8824SOL    HW128479   1.947   3.524   1.320
 8824SOL    HW228480   2.042   3.410   1.348
 8825SOL     OW28481   2.221   2.969   0.503
 8825SOL    HW128482   2.218   3.044   0.442
 8825SOL    HW228483   2.208   2.895   0.441
 8826SOL     OW28484   2.413   2.397   0.856
 8826SOL    HW128485   2.438   2.467   0.792
 8826SOL    HW228486   2.476   2.411   0.928
 8827SOL     OW28487   3.093   3.200   0.397
 8827SOL    HW128488   3.140   3.279   0.429
 8827SOL    HW228489   3.001   3.220   0.424
 8828SOL     OW28490   3.157   3.329   1.160
 8828SOL    HW128491   3.214   3.322   1.238
 8828SOL    HW228492   3.090   3.260   1.177
 8829SOL     OW28493   3.437   2.484   0.468
 8829SOL    HW128494   3.395   2.522   0.547
 8829SOL    HW228495   3.461   2.564   0.420
 8830SOL     OW28496   2.203   3.372   1.322
 8830SOL    HW128497   2.194   3.335   1.231
 8830SOL    HW228498   2.296   3.401   1.320
 8831SOL     OW28499   2.297   2.591   1.610
 8831SOL    HW128500   2.362   2.632   1.550
 8831SOL    HW228501   2.331   2.501   1.617
 8832SOL     OW28502   3.493   2.638   1.680
 8832SOL    HW128503   3.404   2.677   1.682
 8832SOL    HW228504   3.534   2.686   1.605
 8833SOL     OW28505   2.863   1.974   1.768
 8833SOL    HW128506   2.930   2.042   1.751
 8833SOL    HW228507   2.900   1.898   1.721
 8834SOL     OW28508   2.370   1.876   1.742
 8834SOL    HW128509   2.314   1.816   1.691
 8834SOL    HW228510   2.306   1.948   1.762
 8835SOL     OW28511   2.470   2.748   1.052
 8835SOL    HW128512   2.485   2.844   1.050
 8835SOL    HW228513   2.404   2.737   1.123
 8836SOL     OW28514   3.219   2.717   1.014
 8836SOL    HW128515   3.130   2.684   0.997
 8836SOL    HW228516   3.270   2.635   1.020
 8837SOL     OW28517   3.098   2.380   0.289
 8837SOL    HW128518   3.100   2.307   0.355
 8837SOL    HW228519   3.032   2.439   0.329
 8838SOL     OW28520   2.174   2.058   1.250
 8838SOL    HW128521   2.121   2.082   1.329
 8838SOL    HW228522   2.151   1.963   1.241
 8839SOL     OW28523   1.894   3.169   1.281
 8839SOL    HW128524   1.922   3.107   1.351
 8839SOL    HW228525   1.906   3.256   1.323
 8840SOL     OW28526   2.579   2.490   1.060
 8840SOL    HW128527   2.663   2.467   1.016
 8840SOL    HW228528   2.565   2.584   1.041
 8841SOL     OW28529   3.633   2.811   1.849
 8841SOL    HW128530   3.584   2.758   1.785
 8841SOL    HW228531   3.570   2.812   1.924
 8842SOL     OW28532   2.200   1.938   0.606
 8842SOL    HW128533   2.165   2.025   0.634
 8842SOL    HW228534   2.189   1.887   0.689
 8843SOL     OW28535   3.477   2.248   0.342
 8843SOL    HW128536   3.497   2.178   0.407
 8843SOL    HW228537   3.455   2.325   0.399
 8844SOL     OW28538   2.926   2.608   0.978
 8844SOL    HW128539   2.895   2.622   1.070
 8844SOL    HW228540   2.892   2.518   0.959
 8845SOL     OW28541   2.841   3.425   1.706
 8845SOL    HW128542   2.832   3.482   1.627
 8845SOL    HW228543   2.876   3.342   1.668
 8846SOL     OW28544   3.713   3.343   1.603
 8846SOL    HW128545   3.729   3.376   1.513
 8846SOL    HW228546   3.791   3.377   1.651
 8847SOL     OW28547   2.219   2.764   1.789
 8847SOL    HW128548   2.293   2.761   1.852
 8847SOL    HW228549   2.239   2.689   1.730
 8848SOL     OW28550   3.374   2.131   0.115
 8848SOL    HW128551   3.310   2.074   0.159
 8848SOL    HW228552   3.424   2.167   0.190
 8849SOL     OW28553   3.141   2.705   0.029
 8849SOL    HW128554   3.185   2.618   0.047
 8849SOL    HW228555   3.182   2.729  11.046
 8850SOL     OW28556   2.915   3.225   0.846
 8850SOL    HW128557   2.929   3.144   0.792
 8850SOL    HW228558   2.989   3.283   0.819
 8851SOL     OW28559   2.147   2.678   0.995
 8851SOL    HW128560   2.240   2.690   0.971
 8851SOL    HW228561   2.147   2.585   1.022
 8852SOL     OW28562   2.182   2.400   0.995
 8852SOL    HW128563   2.154   2.307   0.985
 8852SOL    HW228564   2.254   2.406   0.929
 8853SOL     OW28565   3.022   2.222   1.699
 8853SOL    HW128566   2.971   2.280   1.759
 8853SOL    HW228567   3.107   2.271   1.694
 8854SOL     OW28568   3.029   2.061   1.480
 8854SOL    HW128569   3.031   2.123   1.555
 8854SOL    HW228570   3.072   2.113   1.411
 8855SOL     OW28571   1.849   3.205   0.222
 8855SOL    HW128572   1.765   3.212   0.171
 8855SOL    HW228573   1.863   3.108   0.220
 8856SOL     OW28574   1.957   3.634   0.944
 8856SOL    HW128575   1.927   3.563   0.884
 8856SOL    HW228576   2.048   3.651   0.911
 8857SOL     OW28577   2.343   3.436   0.919
 8857SOL    HW128578   2.417   3.500   0.921
 8857SOL    HW228579   2.376   3.368   0.856
 8858SOL     OW28580   2.843   2.632   1.234
 8858SOL    HW128581   2.896   2.604   1.311
 8858SOL    HW228582   2.755   2.606   1.263
 8859SOL     OW28583   1.887   2.379   1.099
 8859SOL    HW128584   1.972   2.370   1.053
 8859SOL    HW228585   1.917   2.407   1.187
 8860SOL     OW28586   2.073   2.392   1.719
 8860SOL    HW128587   2.131   2.342   1.660
 8860SOL    HW228588   2.031   2.457   1.659
 8861SOL     OW28589   3.254   2.773   1.652
 8861SOL    HW128590   3.268   2.869   1.652
 8861SOL    HW228591   3.243   2.755   1.557
 8862SOL     OW28592   2.655   2.423   0.385
 8862SOL    HW128593   2.679   2.355   0.318
 8862SOL    HW228594   2.583   2.470   0.339
 8863SOL     OW28595   3.499   2.483   1.200
 8863SOL    HW128596   3.473   2.418   1.268
 8863SOL    HW228597   3.583   2.445   1.166
 8864SOL     OW28598   2.115   3.405   1.717
 8864SOL    HW128599   2.101   3.472   1.785
 8864SOL    HW228600   2.118   3.323   1.770
 8865SOL     OW28601   2.548   2.330   1.270
 8865SOL    HW128602   2.492   2.258   1.238
 8865SOL    HW228603   2.546   2.394   1.196
 8866SOL     OW28604   2.789   3.568   1.483
 8866SOL    HW128605   2.775   3.545   1.390
 8866SOL    HW228606   2.784   3.665   1.482
 8867SOL     OW28607   2.310   2.324   0.195
 8867SOL    HW128608   2.369   2.401   0.201
 8867SOL    HW228609   2.225   2.366   0.213
 8868SOL     OW28610   1.972   2.991   1.468
 8868SOL    HW128611   1.981   2.934   1.548
 8868SOL    HW228612   1.989   2.927   1.396
 8869SOL     OW28613   3.178   2.906   1.219
 8869SOL    HW128614   3.200   2.851   1.142
 8869SOL    HW228615   3.110   2.965   1.182
 8870SOL     OW28616   3.170   2.723   0.304
 8870SOL    HW128617   3.089   2.691   0.344
 8870SOL    HW228618   3.150   2.719   0.210
 8871SOL     OW28619   3.614   3.614   1.124
 8871SOL    HW128620   3.687   3.635   1.063
 8871SOL    HW228621   3.608   3.517   1.114
 8872SOL     OW28622   3.105   3.588   1.104
 8872SOL    HW128623   3.193   3.616   1.075
 8872SOL    HW228624   3.116   3.493   1.121
 8873SOL     OW28625   1.964   3.117   1.031
 8873SOL    HW128626   1.930   3.137   1.121
 8873SOL    HW228627   1.890   3.067   0.993
 8874SOL     OW28628   2.557   3.506   1.736
 8874SOL    HW128629   2.524   3.597   1.730
 8874SOL    HW228630   2.650   3.515   1.713
 8875SOL     OW28631   2.769   1.984   0.142
 8875SOL    HW128632   2.817   1.931   0.077
 8875SOL    HW228633   2.805   1.944   0.223
 8876SOL     OW28634   3.540   1.999   0.499
 8876SOL    HW128635   3.620   1.991   0.444
 8876SOL    HW228636   3.540   1.914   0.547
 8877SOL     OW28637   3.219   3.430   0.490
 8877SOL    HW128638   3.288   3.445   0.422
 8877SOL    HW228639   3.187   3.521   0.504
 8878SOL     OW28640   2.011   3.652   1.831
 8878SOL    HW128641   1.963   3.582   1.880
 8878SOL    HW228642   2.063   3.692   1.903
 8879SOL     OW28643   3.115   2.781   0.636
 8879SOL    HW128644   3.197   2.731   0.652
 8879SOL    HW228645   3.150   2.863   0.596
 8880SOL     OW28646   2.659   3.115   1.430
 8880SOL    HW128647   2.629   3.169   1.506
 8880SOL    HW228648   2.593   3.138   1.364
 8881SOL     OW28649   2.546   3.487   0.170
 8881SOL    HW128650   2.553   3.495   0.074
 8881SOL    HW228651   2.478   3.416   0.177
 8882SOL     OW28652   3.482   3.579   1.384
 8882SOL    HW128653   3.530   3.595   1.300
 8882SOL    HW228654   3.472   3.670   1.420
 8883SOL     OW28655   3.705   2.022   0.979
 8883SOL    HW128656   3.726   1.935   0.940
 8883SOL    HW228657   3.622   2.047   0.934
 8884SOL     OW28658   2.118   2.179   0.712
 8884SOL    HW128659   2.032   2.220   0.691
 8884SOL    HW228660   2.122   2.185   0.808
 8885SOL     OW28661   3.078   3.459   0.036
 8885SOL    HW128662   3.083   3.363   0.055
 8885SOL    HW228663   3.009   3.462  11.068
 8886SOL     OW28664   2.684   2.857   1.382
 8886SOL    HW128665   2.715   2.863   1.291
 8886SOL    HW228666   2.677   2.951   1.409
 8887SOL     OW28667   2.788   2.789   0.289
 8887SOL    HW128668   2.843   2.816   0.212
 8887SOL    HW228669   2.821   2.700   0.309
 8888SOL     OW28670   3.369   3.456   0.040
 8888SOL    HW128671   3.275   3.476   0.042
 8888SOL    HW228672   3.396   3.475  11.051
 8889SOL     OW28673   2.206   3.138   1.488
 8889SOL    HW128674   2.199   3.207   1.421
 8889SOL    HW228675   2.124   3.088   1.479
 8890SOL     OW28676   3.465   3.164   1.269
 8890SOL    HW128677   3.508   3.137   1.351
 8890SOL    HW228678   3.405   3.236   1.301
 8891SOL     OW28679   2.913   2.974   0.734
 8891SOL    HW128680   2.833   2.922   0.754
 8891SOL    HW228681   2.970   2.909   0.691
 8892SOL     OW28682   2.894   2.088   0.991
 8892SOL    HW128683   2.874   2.045   0.904
 8892SOL    HW228684   2.891   2.010   1.050
 8893SOL     OW28685   2.472   3.344   0.484
 8893SOL    HW128686   2.522   3.300   0.413
 8893SOL    HW228687   2.394   3.377   0.438
 8894SOL     OW28688   3.574   2.232   1.381
 8894SOL    HW128689   3.635   2.309   1.379
 8894SOL    HW228690   3.623   2.167   1.325
 8895SOL     OW28691   2.106   3.232   0.267
 8895SOL    HW128692   2.010   3.222   0.248
 8895SOL    HW228693   2.105   3.256   0.362
 8896SOL     OW28694   1.984   2.857   1.694
 8896SOL    HW128695   1.911   2.851   1.759
 8896SOL    HW228696   2.064   2.833   1.747
 8897SOL     OW28697   2.537   2.044   1.491
 8897SOL    HW128698   2.626   2.014   1.467
 8897SOL    HW228699   2.553   2.084   1.579
 8898SOL     OW28700   1.972   2.249   0.015
 8898SOL    HW128701   1.902   2.190  11.084
 8898SOL    HW228702   1.945   2.332  11.074
 8899SOL     OW28703   3.306   2.718   1.380
 8899SOL    HW128704   3.260   2.781   1.322
 8899SOL    HW228705   3.398   2.740   1.361
 8900SOL     OW28706   1.909   2.027   0.329
 8900SOL    HW128707   1.903   2.109   0.277
 8900SOL    HW228708   1.999   1.996   0.305
 8901SOL     OW28709   3.061   3.188   0.123
 8901SOL    HW128710   2.964   3.183   0.113
 8901SOL    HW228711   3.071   3.178   0.220
 8902SOL     OW28712   2.485   2.671   1.423
 8902SOL    HW128713   2.538   2.753   1.422
 8902SOL    HW228714   2.557   2.605   1.430
 8903SOL     OW28715   3.366   3.639   0.964
 8903SOL    HW128716   3.401   3.676   0.882
 8903SOL    HW228717   3.447   3.624   1.016
 8904SOL     OW28718   2.598   2.400   1.672
 8904SOL    HW128719   2.630   2.455   1.745
 8904SOL    HW228720   2.609   2.309   1.704
 8905SOL     OW28721   3.319   3.043   1.625
 8905SOL    HW128722   3.313   3.047   1.723
 8905SOL    HW228723   3.414   3.063   1.611
 8906SOL     OW28724   2.234   3.595   1.558
 8906SOL    HW128725   2.151   3.643   1.545
 8906SOL    HW228726   2.202   3.513   1.600
 8907SOL     OW28727   3.558   2.746   1.239
 8907SOL    HW128728   3.535   2.656   1.210
 8907SOL    HW228729   3.520   2.803   1.169
 8908SOL     OW28730   3.072   2.188   0.484
 8908SOL    HW128731   3.140   2.119   0.469
 8908SOL    HW228732   3.110   2.239   0.558
 8909SOL     OW28733   2.446   2.607   0.675
 8909SOL    HW128734   2.477   2.698   0.661
 8909SOL    HW228735   2.385   2.593   0.601
 8910SOL     OW28736   3.631   2.242   1.644
 8910SOL    HW128737   3.602   2.247   1.551
 8910SOL    HW228738   3.557   2.191   1.683
 8911SOL     OW28739   3.607   2.798   1.500
 8911SOL    HW128740   3.609   2.894   1.492
 8911SOL    HW228741   3.609   2.769   1.406
 8912SOL     OW28742   2.773   3.217   0.048
 8912SOL    HW128743   2.692   3.217   0.101
 8912SOL    HW228744   2.771   3.303   0.004
 8913SOL     OW28745   2.503   3.659   0.901
 8913SOL    HW128746   2.486   3.755   0.897
 8913SOL    HW228747   2.595   3.653   0.928
 8914SOL     OW28748   2.732   2.804   0.845
 8914SOL    HW128749   2.782   2.734   0.888
 8914SOL    HW228750   2.712   2.864   0.918
 8915SOL     OW28751   2.913   2.858   0.067
 8915SOL    HW128752   2.926   2.926   0.000
 8915SOL    HW228753   2.993   2.803   0.056
 8916SOL     OW28754   3.711   3.417   0.819
 8916SOL    HW128755   3.616   3.412   0.805
 8916SOL    HW228756   3.726   3.354   0.891
 8917SOL     OW28757   2.097   3.180   1.868
 8917SOL    HW128758   2.027   3.116   1.851
 8917SOL    HW228759   2.089   3.191   1.964
 8918SOL     OW28760   1.952   3.117   0.658
 8918SOL    HW128761   1.968   3.067   0.739
 8918SOL    HW228762   2.015   3.077   0.597
 8919SOL     OW28763   2.532   3.266   1.615
 8919SOL    HW128764   2.457   3.216   1.651
 8919SOL    HW228765   2.523   3.353   1.659
 8920SOL     OW28766   3.692   2.028   1.241
 8920SOL    HW128767   3.701   1.933   1.250
 8920SOL    HW228768   3.699   2.039   1.144
 8921SOL     OW28769   2.284   2.285   0.500
 8921SOL    HW128770   2.334   2.210   0.462
 8921SOL    HW228771   2.245   2.247   0.580
 8922SOL     OW28772   3.580   3.354   1.090
 8922SOL    HW128773   3.495   3.329   1.050
 8922SOL    HW228774   3.582   3.292   1.165
 8923SOL     OW28775   2.176   2.403   1.282
 8923SOL    HW128776   2.230   2.357   1.350
 8923SOL    HW228777   2.205   2.362   1.199
 8924SOL     OW28778   2.681   3.436   0.671
 8924SOL    HW128779   2.669   3.434   0.575
 8924SOL    HW228780   2.594   3.409   0.701
 8925SOL     OW28781   3.295   2.105   1.094
 8925SOL    HW128782   3.322   2.022   1.135
 8925SOL    HW228783   3.243   2.149   1.165
 8926SOL     OW28784   2.877   1.864   1.156
 8926SOL    HW128785   2.823   1.786   1.135
 8926SOL    HW228786   2.967   1.826   1.152
 8927SOL     OW28787   2.629   3.207   0.311
 8927SOL    HW128788   2.610   3.113   0.326
 8927SOL    HW228789   2.717   3.216   0.349
 8928SOL     OW28790   2.461   3.427   1.267
 8928SOL    HW128791   2.465   3.511   1.317
 8928SOL    HW228792   2.554   3.417   1.243
 8929SOL     OW28793   3.185   1.889   0.171
 8929SOL    HW128794   3.211   1.855   0.085
 8929SOL    HW228795   3.093   1.859   0.179
 8930SOL     OW28796   3.171   2.344   0.705
 8930SOL    HW128797   3.104   2.415   0.705
 8930SOL    HW228798   3.151   2.297   0.788
 8931SOL     OW28799   3.463   2.068   0.857
 8931SOL    HW128800   3.385   2.073   0.914
 8931SOL    HW228801   3.455   2.148   0.802
 8932SOL     OW28802   1.922   2.948   0.263
 8932SOL    HW128803   2.018   2.938   0.273
 8932SOL    HW228804   1.890   2.860   0.286
 8933SOL     OW28805   2.755   3.503   0.356
 8933SOL    HW128806   2.674   3.489   0.305
 8933SOL    HW228807   2.734   3.585   0.407
 8934SOL     OW28808   2.099   2.507   2.002
 8934SOL    HW128809   2.011   2.482   2.035
 8934SOL    HW228810   2.102   2.470   1.913
 8935SOL     OW28811   2.097   2.137   2.879
 8935SOL    HW128812   2.112   2.110   2.971
 8935SOL    HW228813   2.010   2.097   2.860
 8936SOL     OW28814   1.847   2.274   2.473
 8936SOL    HW128815   1.778   2.253   2.537
 8936SOL    HW228816   1.905   2.196   2.476
 8937SOL     OW28817   2.436   3.153   3.064
 8937SOL    HW128818   2.350   3.147   3.022
 8937SOL    HW228819   2.442   3.247   3.089
 8938SOL     OW28820   3.396   3.394   2.569
 8938SOL    HW128821   3.357   3.364   2.654
 8938SOL    HW228822   3.321   3.393   2.506
 8939SOL     OW28823   3.002   2.536   2.575
 8939SOL    HW128824   3.026   2.627   2.548
 8939SOL    HW228825   2.959   2.553   2.661
 8940SOL     OW28826   3.635   2.472   2.101
 8940SOL    HW128827   3.619   2.468   2.004
 8940SOL    HW228828   3.575   2.403   2.133
 8941SOL     OW28829   2.611   3.027   2.894
 8941SOL    HW128830   2.547   3.071   2.954
 8941SOL    HW228831   2.642   3.103   2.842
 8942SOL     OW28832   2.746   2.611   3.663
 8942SOL    HW128833   2.720   2.672   3.733
 8942SOL    HW228834   2.771   2.671   3.590
 8943SOL     OW28835   2.556   2.904   2.513
 8943SOL    HW128836   2.614   2.870   2.584
 8943SOL    HW228837   2.482   2.943   2.563
 8944SOL     OW28838   2.558   3.017   3.662
 8944SOL    HW128839   2.602   3.102   3.686
 8944SOL    HW228840   2.469   3.046   3.634
 8945SOL     OW28841   2.174   3.296   2.933
 8945SOL    HW128842   2.106   3.242   2.889
 8945SOL    HW228843   2.222   3.339   2.860
 8946SOL     OW28844   3.338   3.369   3.232
 8946SOL    HW128845   3.390   3.451   3.247
 8946SOL    HW228846   3.268   3.377   3.298
 8947SOL     OW28847   2.284   2.259   3.385
 8947SOL    HW128848   2.359   2.199   3.372
 8947SOL    HW228849   2.208   2.204   3.359
 8948SOL     OW28850   3.484   2.300   2.600
 8948SOL    HW128851   3.418   2.329   2.535
 8948SOL    HW228852   3.467   2.361   2.672
 8949SOL     OW28853   2.085   3.585   2.342
 8949SOL    HW128854   2.116   3.664   2.390
 8949SOL    HW228855   2.146   3.584   2.267
 8950SOL     OW28856   2.981   3.208   3.516
 8950SOL    HW128857   3.030   3.213   3.599
 8950SOL    HW228858   2.939   3.120   3.525
 8951SOL     OW28859   2.117   3.299   2.392
 8951SOL    HW128860   2.107   3.395   2.399
 8951SOL    HW228861   2.046   3.266   2.449
 8952SOL     OW28862   2.136   2.941   2.761
 8952SOL    HW128863   2.135   2.866   2.824
 8952SOL    HW228864   2.080   3.006   2.806
 8953SOL     OW28865   2.466   3.656   3.266
 8953SOL    HW128866   2.393   3.630   3.324
 8953SOL    HW228867   2.487   3.746   3.297
 8954SOL     OW28868   2.445   2.844   1.987
 8954SOL    HW128869   2.488   2.896   1.916
 8954SOL    HW228870   2.484   2.886   2.066
 8955SOL     OW28871   3.482   1.961   3.347
 8955SOL    HW128872   3.451   2.042   3.304
 8955SOL    HW228873   3.468   1.984   3.441
 8956SOL     OW28874   2.016   2.487   2.449
 8956SOL    HW128875   1.959   2.408   2.438
 8956SOL    HW228876   1.963   2.543   2.507
 8957SOL     OW28877   3.712   3.606   2.203
 8957SOL    HW128878   3.782   3.586   2.268
 8957SOL    HW228879   3.728   3.701   2.187
 8958SOL     OW28880   1.899   3.455   1.970
 8958SOL    HW128881   1.893   3.361   1.993
 8958SOL    HW228882   1.869   3.497   2.052
 8959SOL     OW28883   3.546   2.763   2.497
 8959SOL    HW128884   3.614   2.724   2.439
 8959SOL    HW228885   3.511   2.832   2.439
 8960SOL     OW28886   3.508   2.979   2.311
 8960SOL    HW128887   3.598   2.979   2.273
 8960SOL    HW228888   3.513   3.052   2.376
 8961SOL     OW28889   1.986   2.599   3.447
 8961SOL    HW128890   2.074   2.638   3.462
 8961SOL    HW228891   1.928   2.674   3.466
 8962SOL     OW28892   2.454   3.272   2.615
 8962SOL    HW128893   2.413   3.183   2.624
 8962SOL    HW228894   2.448   3.285   2.519
 8963SOL     OW28895   3.157   3.100   3.285
 8963SOL    HW128896   3.183   3.024   3.231
 8963SOL    HW228897   3.208   3.083   3.367
 8964SOL     OW28898   2.690   1.853   2.370
 8964SOL    HW128899   2.724   1.943   2.356
 8964SOL    HW228900   2.594   1.868   2.369
 8965SOL     OW28901   2.044   2.836   3.122
 8965SOL    HW128902   2.130   2.800   3.097
 8965SOL    HW228903   1.982   2.785   3.067
 8966SOL     OW28904   3.412   2.806   2.038
 8966SOL    HW128905   3.331   2.759   2.065
 8966SOL    HW228906   3.437   2.850   2.121
 8967SOL     OW28907   3.036   3.662   3.476
 8967SOL    HW128908   3.040   3.729   3.405
 8967SOL    HW228909   3.062   3.582   3.428
 8968SOL     OW28910   2.198   2.092   3.643
 8968SOL    HW128911   2.243   2.175   3.665
 8968SOL    HW228912   2.106   2.115   3.671
 8969SOL     OW28913   3.332   3.287   2.824
 8969SOL    HW128914   3.267   3.304   2.894
 8969SOL    HW228915   3.307   3.196   2.796
 8970SOL     OW28916   3.533   3.592   2.468
 8970SOL    HW128917   3.514   3.560   2.379
 8970SOL    HW228918   3.493   3.521   2.522
 8971SOL     OW28919   2.443   2.575   2.126
 8971SOL    HW128920   2.446   2.663   2.086
 8971SOL    HW228921   2.365   2.580   2.185
 8972SOL     OW28922   3.124   2.226   2.805
 8972SOL    HW128923   3.038   2.183   2.817
 8972SOL    HW228924   3.184   2.169   2.857
 8973SOL     OW28925   3.438   3.509   2.168
 8973SOL    HW128926   3.532   3.529   2.172
 8973SOL    HW228927   3.426   3.501   2.071
 8974SOL     OW28928   2.673   2.483   3.315
 8974SOL    HW128929   2.653   2.446   3.404
 8974SOL    HW228930   2.623   2.423   3.257
 8975SOL     OW28931   3.255   2.335   3.538
 8975SOL    HW128932   3.257   2.394   3.616
 8975SOL    HW228933   3.318   2.266   3.563
 8976SOL     OW28934   2.827   2.750   3.445
 8976SOL    HW128935   2.872   2.672   3.406
 8976SOL    HW228936   2.782   2.786   3.366
 8977SOL     OW28937   2.836   2.245   3.090
 8977SOL    HW128938   2.751   2.287   3.110
 8977SOL    HW228939   2.826   2.215   2.999
 8978SOL     OW28940   2.914   2.541   2.272
 8978SOL    HW128941   2.919   2.562   2.367
 8978SOL    HW228942   2.826   2.496   2.265
 8979SOL     OW28943   1.952   2.673   2.671
 8979SOL    HW128944   2.040   2.680   2.710
 8979SOL    HW228945   1.928   2.765   2.655
 8980SOL     OW28946   1.968   3.707   3.430
 8980SOL    HW128947   1.978   3.687   3.525
 8980SOL    HW228948   1.872   3.702   3.417
 8981SOL     OW28949   2.738   2.210   2.084
 8981SOL    HW128950   2.765   2.267   2.010
 8981SOL    HW228951   2.702   2.134   2.036
 8982SOL     OW28952   3.593   2.456   3.703
 8982SOL    HW128953   3.550   2.529   3.655
 8982SOL    HW228954   3.612   2.396   3.629
 8983SOL     OW28955   3.223   3.012   2.420
 8983SOL    HW128956   3.303   3.002   2.366
 8983SOL    HW228957   3.174   3.079   2.370
 8984SOL     OW28958   2.414   2.051   2.754
 8984SOL    HW128959   2.409   2.091   2.843
 8984SOL    HW228960   2.407   2.127   2.695
 8985SOL     OW28961   2.847   3.300   2.355
 8985SOL    HW128962   2.807   3.362   2.291
 8985SOL    HW228963   2.848   3.351   2.436
 8986SOL     OW28964   2.202   3.670   2.712
 8986SOL    HW128965   2.250   3.586   2.725
 8986SOL    HW228966   2.268   3.735   2.741
 8987SOL     OW28967   3.676   2.898   2.731
 8987SOL    HW128968   3.623   2.880   2.652
 8987SOL    HW228969   3.611   2.891   2.802
 8988SOL     OW28970   3.093   3.421   3.354
 8988SOL    HW128971   3.063   3.357   3.421
 8988SOL    HW228972   3.045   3.390   3.276
 8989SOL     OW28973   2.166   2.811   2.116
 8989SOL    HW128974   2.254   2.816   2.077
 8989SOL    HW228975   2.137   2.721   2.092
 8990SOL     OW28976   3.336   2.615   2.574
 8990SOL    HW128977   3.335   2.592   2.668
 8990SOL    HW228978   3.417   2.668   2.565
 8991SOL     OW28979   2.323   3.135   3.586
 8991SOL    HW128980   2.282   3.138   3.497
 8991SOL    HW228981   2.244   3.146   3.642
 8992SOL     OW28982   2.963   3.622   2.109
 8992SOL    HW128983   2.887   3.575   2.145
 8992SOL    HW228984   2.969   3.587   2.018
 8993SOL     OW28985   2.036   2.145   3.357
 8993SOL    HW128986   1.967   2.211   3.376
 8993SOL    HW228987   2.011   2.072   3.415
 8994SOL     OW28988   3.482   3.223   1.957
 8994SOL    HW128989   3.442   3.308   1.931
 8994SOL    HW228990   3.419   3.157   1.923
 8995SOL     OW28991   2.321   3.602   2.183
 8995SOL    HW128992   2.369   3.653   2.250
 8995SOL    HW228993   2.391   3.579   2.121
 8996SOL     OW28994   3.265   1.997   2.320
 8996SOL    HW128995   3.245   1.958   2.233
 8996SOL    HW228996   3.362   1.995   2.322
 8997SOL     OW28997   2.108   3.657   3.088
 8997SOL    HW128998   2.162   3.583   3.121
 8997SOL    HW228999   2.086   3.630   2.998
 8998SOL     OW29000   2.823   3.564   2.748
 8998SOL    HW129001   2.905   3.513   2.757
 8998SOL    HW229002   2.775   3.514   2.680
 8999SOL     OW29003   2.242   2.570   2.310
 8999SOL    HW129004   2.269   2.478   2.330
 8999SOL    HW229005   2.149   2.564   2.341
 9000SOL     OW29006   3.409   2.101   3.585
 9000SOL    HW129007   3.410   2.115   3.682
 9000SOL    HW229008   3.344   2.030   3.581
 9001SOL     OW29009   2.523   2.004   1.916
 9001SOL    HW129010   2.535   1.950   1.994
 9001SOL    HW229011   2.466   1.949   1.859
 9002SOL     OW29012   2.618   2.108   3.600
 9002SOL    HW129013   2.705   2.065   3.614
 9002SOL    HW229014   2.579   2.107   3.689
 9003SOL     OW29015   2.751   3.401   3.063
 9003SOL    HW129016   2.748   3.375   2.969
 9003SOL    HW229017   2.815   3.340   3.101
 9004SOL     OW29018   3.191   2.449   3.299
 9004SOL    HW129019   3.232   2.420   3.383
 9004SOL    HW229020   3.239   2.532   3.279
 9005SOL     OW29021   2.664   3.273   2.780
 9005SOL    HW129022   2.749   3.265   2.733
 9005SOL    HW229023   2.599   3.271   2.708
 9006SOL     OW29024   2.797   2.390   2.768
 9006SOL    HW129025   2.770   2.380   2.674
 9006SOL    HW229026   2.831   2.302   2.785
 9007SOL     OW29027   2.414   1.907   2.368
 9007SOL    HW129028   2.330   1.923   2.416
 9007SOL    HW229029   2.414   1.984   2.307
 9008SOL     OW29030   3.304   3.033   1.887
 9008SOL    HW129031   3.327   2.956   1.943
 9008SOL    HW229032   3.217   3.060   1.920
 9009SOL     OW29033   2.152   1.936   2.108
 9009SOL    HW129034   2.144   1.982   2.024
 9009SOL    HW229035   2.196   1.855   2.080
 9010SOL     OW29036   2.795   2.111   2.351
 9010SOL    HW129037   2.772   2.153   2.266
 9010SOL    HW229038   2.890   2.131   2.357
 9011SOL     OW29039   2.946   2.542   3.332
 9011SOL    HW129040   2.886   2.466   3.338
 9011SOL    HW229041   3.035   2.501   3.331
 9012SOL     OW29042   3.091   3.447   2.657
 9012SOL    HW129043   3.090   3.503   2.577
 9012SOL    HW229044   3.172   3.475   2.700
 9013SOL     OW29045   2.330   3.037   2.600
 9013SOL    HW129046   2.257   2.998   2.654
 9013SOL    HW229047   2.301   3.011   2.510
 9014SOL     OW29048   3.126   3.675   2.460
 9014SOL    HW129049   3.175   3.743   2.410
 9014SOL    HW229050   3.077   3.729   2.523
 9015SOL     OW29051   2.917   2.408   1.871
 9015SOL    HW129052   2.865   2.489   1.859
 9015SOL    HW229053   2.970   2.426   1.950
 9016SOL     OW29054   1.929   2.412   3.265
 9016SOL    HW129055   2.023   2.399   3.240
 9016SOL    HW229056   1.935   2.491   3.322
 9017SOL     OW29057   2.414   2.118   3.028
 9017SOL    HW129058   2.464   2.036   3.035
 9017SOL    HW229059   2.327   2.092   3.064
 9018SOL     OW29060   2.736   2.320   2.523
 9018SOL    HW129061   2.668   2.362   2.468
 9018SOL    HW229062   2.753   2.238   2.474
 9019SOL     OW29063   2.902   1.916   2.632
 9019SOL    HW129064   2.844   1.912   2.554
 9019SOL    HW229065   2.874   1.838   2.683
 9020SOL     OW29066   3.281   3.039   2.748
 9020SOL    HW129067   3.219   2.969   2.772
 9020SOL    HW229068   3.279   3.036   2.651
 9021SOL     OW29069   3.340   2.435   2.845
 9021SOL    HW129070   3.272   2.369   2.861
 9021SOL    HW229071   3.397   2.431   2.924
 9022SOL     OW29072   3.706   2.677   2.261
 9022SOL    HW129073   3.766   2.623   2.315
 9022SOL    HW229074   3.679   2.613   2.192
 9023SOL     OW29075   2.355   3.281   1.987
 9023SOL    HW129076   2.272   3.268   2.035
 9023SOL    HW229077   2.341   3.234   1.904
 9024SOL     OW29078   3.536   3.155   2.526
 9024SOL    HW129079   3.633   3.166   2.524
 9024SOL    HW229080   3.504   3.244   2.547
 9025SOL     OW29081   3.255   2.462   1.926
 9025SOL    HW129082   3.208   2.429   2.006
 9025SOL    HW229083   3.343   2.427   1.940
 9026SOL     OW29084   2.422   2.083   2.167
 9026SOL    HW129085   2.404   2.124   2.081
 9026SOL    HW229086   2.391   2.155   2.227
 9027SOL     OW29087   3.595   3.094   3.438
 9027SOL    HW129088   3.684   3.057   3.431
 9027SOL    HW229089   3.617   3.187   3.456
 9028SOL     OW29090   2.935   3.225   3.195
 9028SOL    HW129091   2.860   3.188   3.244
 9028SOL    HW229092   3.010   3.179   3.240
 9029SOL     OW29093   3.479   3.471   3.497
 9029SOL    HW129094   3.483   3.516   3.410
 9029SOL    HW229095   3.559   3.415   3.494
 9030SOL     OW29096   2.983   3.089   2.954
 9030SOL    HW129097   2.927   3.123   3.025
 9030SOL    HW229098   2.947   3.134   2.876
 9031SOL     OW29099   3.471   2.959   2.945
 9031SOL    HW129100   3.480   3.023   3.018
 9031SOL    HW229101   3.413   3.008   2.884
 9032SOL     OW29102   2.776   1.964   3.260
 9032SOL    HW129103   2.803   1.943   3.169
 9032SOL    HW229104   2.856   2.010   3.293
 9033SOL     OW29105   2.857   2.976   3.598
 9033SOL    HW129106   2.766   3.001   3.618
 9033SOL    HW229107   2.845   2.897   3.540
 9034SOL     OW29108   2.578   2.940   2.210
 9034SOL    HW129109   2.557   2.920   2.303
 9034SOL    HW229110   2.647   2.872   2.190
 9035SOL     OW29111   2.289   2.669   3.120
 9035SOL    HW129112   2.359   2.669   3.189
 9035SOL    HW229113   2.242   2.585   3.136
 9036SOL     OW29114   3.148   2.250   3.123
 9036SOL    HW129115   3.165   2.325   3.185
 9036SOL    HW229116   3.059   2.270   3.092
 9037SOL     OW29117   1.936   3.435   3.192
 9037SOL    HW129118   1.935   3.526   3.162
 9037SOL    HW229119   2.032   3.415   3.195
 9038SOL     OW29120   2.238   2.956   2.367
 9038SOL    HW129121   2.254   3.014   2.291
 9038SOL    HW229122   2.207   2.875   2.324
 9039SOL     OW29123   2.403   2.408   2.717
 9039SOL    HW129124   2.426   2.456   2.635
 9039SOL    HW229125   2.476   2.430   2.776
 9040SOL     OW29126   3.095   3.205   2.256
 9040SOL    HW129127   3.131   3.290   2.288
 9040SOL    HW229128   3.002   3.212   2.283
 9041SOL     OW29129   3.162   3.333   3.032
 9041SOL    HW129130   3.226   3.331   3.105
 9041SOL    HW229131   3.095   3.269   3.060
 9042SOL     OW29132   3.445   2.470   2.335
 9042SOL    HW129133   3.391   2.522   2.397
 9042SOL    HW229134   3.471   2.537   2.270
 9043SOL     OW29135   2.202   3.367   3.181
 9043SOL    HW129136   2.188   3.338   3.088
 9043SOL    HW229137   2.297   3.388   3.177
 9044SOL     OW29138   2.304   2.592   3.492
 9044SOL    HW129139   2.360   2.637   3.425
 9044SOL    HW229140   2.336   2.501   3.486
 9045SOL     OW29141   3.486   2.635   3.542
 9045SOL    HW129142   3.399   2.678   3.544
 9045SOL    HW229143   3.531   2.685   3.471
 9046SOL     OW29144   2.853   1.965   3.616
 9046SOL    HW129145   2.921   2.035   3.613
 9046SOL    HW229146   2.900   1.892   3.572
 9047SOL     OW29147   2.359   1.883   3.616
 9047SOL    HW129148   2.290   1.818   3.595
 9047SOL    HW229149   2.305   1.964   3.628
 9048SOL     OW29150   2.485   2.753   2.925
 9048SOL    HW129151   2.492   2.849   2.915
 9048SOL    HW229152   2.415   2.742   2.991
 9049SOL     OW29153   3.214   2.718   2.891
 9049SOL    HW129154   3.129   2.686   2.858
 9049SOL    HW229155   3.266   2.636   2.895
 9050SOL     OW29156   3.093   2.385   2.131
 9050SOL    HW129157   3.088   2.309   2.192
 9050SOL    HW229158   3.032   2.446   2.175
 9051SOL     OW29159   2.174   2.040   3.135
 9051SOL    HW129160   2.118   2.076   3.206
 9051SOL    HW229161   2.139   1.949   3.127
 9052SOL     OW29162   1.895   3.163   3.148
 9052SOL    HW129163   1.925   3.109   3.223
 9052SOL    HW229164   1.905   3.254   3.179
 9053SOL     OW29165   2.590   2.508   2.919
 9053SOL    HW129166   2.666   2.495   2.859
 9053SOL    HW229167   2.562   2.601   2.905
 9054SOL     OW29168   3.624   2.815   3.701
 9054SOL    HW129169   3.575   2.749   3.651
 9054SOL    HW229170   3.564   2.832   3.775
 9055SOL     OW29171   2.159   1.915   2.475
 9055SOL    HW129172   2.133   2.008   2.490
 9055SOL    HW229173   2.161   1.881   2.566
 9056SOL     OW29174   3.452   2.235   2.209
 9056SOL    HW129175   3.487   2.165   2.267
 9056SOL    HW229176   3.447   2.312   2.269
 9057SOL     OW29177   2.940   2.615   2.837
 9057SOL    HW129178   2.920   2.631   2.931
 9057SOL    HW229179   2.901   2.526   2.826
 9058SOL     OW29180   2.845   3.429   3.566
 9058SOL    HW129181   2.832   3.479   3.482
 9058SOL    HW229182   2.876   3.343   3.534
 9059SOL     OW29183   3.713   3.347   3.459
 9059SOL    HW129184   3.735   3.375   3.369
 9059SOL    HW229185   3.792   3.377   3.508
 9060SOL     OW29186   2.215   2.767   3.666
 9060SOL    HW129187   2.300   2.787   3.709
 9060SOL    HW229188   2.239   2.694   3.606
 9061SOL     OW29189   3.373   2.119   1.984
 9061SOL    HW129190   3.300   2.064   2.017
 9061SOL    HW229191   3.407   2.161   2.066
 9062SOL     OW29192   3.149   2.705   1.887
 9062SOL    HW129193   3.188   2.616   1.899
 9062SOL    HW229194   3.182   2.727   1.797
 9063SOL     OW29195   2.925   3.230   2.708
 9063SOL    HW129196   2.936   3.152   2.649
 9063SOL    HW229197   2.996   3.291   2.680
 9064SOL     OW29198   2.157   2.684   2.866
 9064SOL    HW129199   2.250   2.678   2.840
 9064SOL    HW229200   2.138   2.591   2.886
 9065SOL     OW29201   2.189   2.399   2.872
 9065SOL    HW129202   2.166   2.305   2.859
 9065SOL    HW229203   2.255   2.411   2.800
 9066SOL     OW29204   3.022   2.209   3.573
 9066SOL    HW129205   2.974   2.271   3.631
 9066SOL    HW229206   3.109   2.253   3.567
 9067SOL     OW29207   3.029   2.059   3.337
 9067SOL    HW129208   3.027   2.119   3.415
 9067SOL    HW229209   3.071   2.114   3.270
 9068SOL     OW29210   1.862   3.191   2.064
 9068SOL    HW129211   1.768   3.200   2.037
 9068SOL    HW229212   1.866   3.096   2.090
 9069SOL     OW29213   1.957   3.644   2.807
 9069SOL    HW129214   1.925   3.578   2.742
 9069SOL    HW229215   2.048   3.660   2.774
 9070SOL     OW29216   2.346   3.448   2.785
 9070SOL    HW129217   2.415   3.517   2.796
 9070SOL    HW229218   2.393   3.382   2.732
 9071SOL     OW29219   2.840   2.626   3.094
 9071SOL    HW129220   2.883   2.597   3.176
 9071SOL    HW229221   2.748   2.601   3.109
 9072SOL     OW29222   1.887   2.381   2.968
 9072SOL    HW129223   1.962   2.369   2.909
 9072SOL    HW229224   1.930   2.402   3.052
 9073SOL     OW29225   2.086   2.376   3.567
 9073SOL    HW129226   2.145   2.340   3.499
 9073SOL    HW229227   2.043   2.451   3.520
 9074SOL     OW29228   3.256   2.781   3.510
 9074SOL    HW129229   3.278   2.877   3.504
 9074SOL    HW229230   3.249   2.756   3.417
 9075SOL     OW29231   2.672   2.445   2.224
 9075SOL    HW129232   2.664   2.360   2.179
 9075SOL    HW229233   2.585   2.485   2.207
 9076SOL     OW29234   3.505   2.480   3.071
 9076SOL    HW129235   3.481   2.414   3.137
 9076SOL    HW229236   3.587   2.444   3.034
 9077SOL     OW29237   2.120   3.403   3.583
 9077SOL    HW129238   2.100   3.472   3.648
 9077SOL    HW229239   2.121   3.323   3.638
 9078SOL     OW29240   2.551   2.338   3.124
 9078SOL    HW129241   2.499   2.265   3.086
 9078SOL    HW229242   2.552   2.404   3.051
 9079SOL     OW29243   2.786   3.554   3.335
 9079SOL    HW129244   2.762   3.519   3.248
 9079SOL    HW229245   2.778   3.651   3.322
 9080SOL     OW29246   2.315   2.336   2.030
 9080SOL    HW129247   2.375   2.405   2.060
 9080SOL    HW229248   2.230   2.373   2.057
 9081SOL     OW29249   1.973   2.989   3.332
 9081SOL    HW129250   1.981   2.934   3.413
 9081SOL    HW229251   1.996   2.925   3.261
 9082SOL     OW29252   3.183   2.899   3.099
 9082SOL    HW129253   3.201   2.842   3.022
 9082SOL    HW229254   3.117   2.960   3.062
 9083SOL     OW29255   3.171   2.722   2.159
 9083SOL    HW129256   3.092   2.688   2.204
 9083SOL    HW229257   3.144   2.722   2.066
 9084SOL     OW29258   3.617   3.612   2.993
 9084SOL    HW129259   3.689   3.635   2.930
 9084SOL    HW229260   3.609   3.515   2.978
 9085SOL     OW29261   3.101   3.592   2.978
 9085SOL    HW129262   3.189   3.615   2.944
 9085SOL    HW229263   3.109   3.495   2.991
 9086SOL     OW29264   1.970   3.118   2.892
 9086SOL    HW129265   1.934   3.134   2.981
 9086SOL    HW229266   1.895   3.073   2.848
 9087SOL     OW29267   2.555   3.500   3.603
 9087SOL    HW129268   2.511   3.583   3.579
 9087SOL    HW229269   2.643   3.510   3.563
 9088SOL     OW29270   3.546   1.988   2.350
 9088SOL    HW129271   3.620   1.982   2.287
 9088SOL    HW229272   3.555   1.905   2.401
 9089SOL     OW29273   3.221   3.446   2.340
 9089SOL    HW129274   3.278   3.469   2.264
 9089SOL    HW229275   3.179   3.532   2.361
 9090SOL     OW29276   2.014   3.653   3.691
 9090SOL    HW129277   1.964   3.586   3.742
 9090SOL    HW229278   2.062   3.699   3.763
 9091SOL     OW29279   3.113   2.781   2.530
 9091SOL    HW129280   3.192   2.725   2.541
 9091SOL    HW229281   3.150   2.859   2.486
 9092SOL     OW29282   2.676   3.123   3.284
 9092SOL    HW129283   2.645   3.171   3.364
 9092SOL    HW229284   2.602   3.140   3.224
 9093SOL     OW29285   2.532   3.479   2.017
 9093SOL    HW129286   2.548   3.494   1.923
 9093SOL    HW229287   2.473   3.401   2.014
 9094SOL     OW29288   3.487   3.589   3.250
 9094SOL    HW129289   3.535   3.603   3.166
 9094SOL    HW229290   3.474   3.681   3.282
 9095SOL     OW29291   3.701   2.027   2.841
 9095SOL    HW129292   3.725   1.943   2.799
 9095SOL    HW229293   3.615   2.049   2.797
 9096SOL     OW29294   2.095   2.160   2.568
 9096SOL    HW129295   2.148   2.215   2.507
 9096SOL    HW229296   2.122   2.197   2.653
 9097SOL     OW29297   3.054   3.491   1.885
 9097SOL    HW129298   3.054   3.395   1.899
 9097SOL    HW229299   2.989   3.504   1.814
 9098SOL     OW29300   2.685   2.858   3.246
 9098SOL    HW129301   2.718   2.860   3.156
 9098SOL    HW229302   2.682   2.953   3.269
 9099SOL     OW29303   2.764   2.769   2.142
 9099SOL    HW129304   2.837   2.798   2.084
 9099SOL    HW229305   2.797   2.685   2.178
 9100SOL     OW29306   3.416   3.487   1.896
 9100SOL    HW129307   3.320   3.500   1.894
 9100SOL    HW229308   3.437   3.488   1.800
 9101SOL     OW29309   2.204   3.132   3.351
 9101SOL    HW129310   2.200   3.199   3.281
 9101SOL    HW229311   2.122   3.082   3.339
 9102SOL     OW29312   3.472   3.166   3.130
 9102SOL    HW129313   3.511   3.138   3.214
 9102SOL    HW229314   3.415   3.240   3.160
 9103SOL     OW29315   2.916   2.978   2.590
 9103SOL    HW129316   2.838   2.930   2.624
 9103SOL    HW229317   2.973   2.905   2.560
 9104SOL     OW29318   2.892   2.091   2.842
 9104SOL    HW129319   2.883   2.047   2.755
 9104SOL    HW229320   2.893   2.015   2.904
 9105SOL     OW29321   2.485   3.359   2.360
 9105SOL    HW129322   2.533   3.310   2.291
 9105SOL    HW229323   2.413   3.400   2.309
 9106SOL     OW29324   3.573   2.234   3.241
 9106SOL    HW129325   3.639   2.307   3.239
 9106SOL    HW229326   3.619   2.164   3.191
 9107SOL     OW29327   2.111   3.244   2.133
 9107SOL    HW129328   2.015   3.225   2.125
 9107SOL    HW229329   2.119   3.264   2.228
 9108SOL     OW29330   1.988   2.862   3.560
 9108SOL    HW129331   1.916   2.853   3.625
 9108SOL    HW229332   2.068   2.836   3.610
 9109SOL     OW29333   2.516   2.035   3.356
 9109SOL    HW129334   2.599   2.034   3.305
 9109SOL    HW229335   2.545   2.080   3.438
 9110SOL     OW29336   1.974   2.210   1.884
 9110SOL    HW129337   1.878   2.213   1.882
 9110SOL    HW229338   2.000   2.287   1.831
 9111SOL     OW29339   3.312   2.707   3.248
 9111SOL    HW129340   3.269   2.772   3.190
 9111SOL    HW229341   3.405   2.732   3.238
 9112SOL     OW29342   1.900   2.036   2.170
 9112SOL    HW129343   1.906   2.124   2.132
 9112SOL    HW229344   1.988   2.000   2.147
 9113SOL     OW29345   3.064   3.218   1.970
 9113SOL    HW129346   2.975   3.183   1.977
 9113SOL    HW229347   3.091   3.224   2.064
 9114SOL     OW29348   2.484   2.673   3.304
 9114SOL    HW129349   2.539   2.753   3.297
 9114SOL    HW229350   2.555   2.605   3.307
 9115SOL     OW29351   3.367   3.625   2.827
 9115SOL    HW129352   3.402   3.668   2.748
 9115SOL    HW229353   3.447   3.613   2.880
 9116SOL     OW29354   2.604   2.393   3.552
 9116SOL    HW129355   2.635   2.466   3.609
 9116SOL    HW229356   2.607   2.316   3.610
 9117SOL     OW29357   3.325   3.044   3.491
 9117SOL    HW129358   3.315   3.049   3.589
 9117SOL    HW229359   3.418   3.069   3.479
 9118SOL     OW29360   2.238   3.594   3.422
 9118SOL    HW129361   2.155   3.643   3.405
 9118SOL    HW229362   2.203   3.509   3.457
 9119SOL     OW29363   3.563   2.744   3.103
 9119SOL    HW129364   3.533   2.657   3.072
 9119SOL    HW229365   3.526   2.806   3.037
 9120SOL     OW29366   3.073   2.198   2.339
 9120SOL    HW129367   3.141   2.129   2.332
 9120SOL    HW229368   3.107   2.251   2.413
 9121SOL     OW29369   2.462   2.603   2.526
 9121SOL    HW129370   2.490   2.691   2.498
 9121SOL    HW229371   2.388   2.585   2.465
 9122SOL     OW29372   3.630   2.242   3.499
 9122SOL    HW129373   3.603   2.248   3.406
 9122SOL    HW229374   3.555   2.192   3.536
 9123SOL     OW29375   3.600   2.797   3.364
 9123SOL    HW129376   3.600   2.894   3.372
 9123SOL    HW229377   3.606   2.783   3.267
 9124SOL     OW29378   2.722   3.214   1.900
 9124SOL    HW129379   2.684   3.239   1.987
 9124SOL    HW229380   2.744   3.299   1.860
 9125SOL     OW29381   2.503   3.663   2.767
 9125SOL    HW129382   2.491   3.759   2.751
 9125SOL    HW229383   2.599   3.656   2.779
 9126SOL     OW29384   2.737   2.810   2.709
 9126SOL    HW129385   2.790   2.737   2.744
 9126SOL    HW229386   2.714   2.861   2.789
 9127SOL     OW29387   2.947   2.854   1.966
 9127SOL    HW129388   2.921   2.910   1.891
 9127SOL    HW229389   3.014   2.797   1.924
 9128SOL     OW29390   3.734   3.424   2.693
 9128SOL    HW129391   3.640   3.421   2.673
 9128SOL    HW229392   3.745   3.353   2.758
 9129SOL     OW29393   2.103   3.181   3.727
 9129SOL    HW129394   2.026   3.132   3.696
 9129SOL    HW229395   2.087   3.184   3.823
 9130SOL     OW29396   1.948   3.118   2.521
 9130SOL    HW129397   1.936   3.061   2.598
 9130SOL    HW229398   2.016   3.070   2.471
 9131SOL     OW29399   2.539   3.262   3.474
 9131SOL    HW129400   2.462   3.212   3.506
 9131SOL    HW229401   2.527   3.347   3.521
 9132SOL     OW29402   3.682   2.016   3.105
 9132SOL    HW129403   3.764   1.966   3.107
 9132SOL    HW229404   3.675   2.035   3.009
 9133SOL     OW29405   3.579   3.353   2.945
 9133SOL    HW129406   3.493   3.336   2.904
 9133SOL    HW229407   3.577   3.289   3.018
 9134SOL     OW29408   2.185   2.398   3.139
 9134SOL    HW129409   2.264   2.359   3.177
 9134SOL    HW229410   2.198   2.387   3.043
 9135SOL     OW29411   2.690   3.455   2.538
 9135SOL    HW129412   2.684   3.495   2.450
 9135SOL    HW229413   2.603   3.413   2.545
 9136SOL     OW29414   3.293   2.097   2.962
 9136SOL    HW129415   3.328   2.023   3.011
 9136SOL    HW229416   3.247   2.150   3.031
 9137SOL     OW29417   2.881   1.868   3.012
 9137SOL    HW129418   2.827   1.803   2.965
 9137SOL    HW229419   2.970   1.827   3.008
 9138SOL     OW29420   2.649   3.204   2.174
 9138SOL    HW129421   2.619   3.111   2.176
 9138SOL    HW229422   2.724   3.201   2.235
 9139SOL     OW29423   2.463   3.417   3.130
 9139SOL    HW129424   2.465   3.503   3.176
 9139SOL    HW229425   2.557   3.410   3.104
 9140SOL     OW29426   3.185   1.906   2.061
 9140SOL    HW129427   3.192   1.853   1.980
 9140SOL    HW229428   3.096   1.878   2.091
 9141SOL     OW29429   3.178   2.326   2.561
 9141SOL    HW129430   3.119   2.404   2.557
 9141SOL    HW229431   3.158   2.292   2.651
 9142SOL     OW29432   3.465   2.061   2.730
 9142SOL    HW129433   3.390   2.081   2.789
 9142SOL    HW229434   3.468   2.140   2.673
 9143SOL     OW29435   1.925   2.941   2.140
 9143SOL    HW129436   2.015   2.907   2.130
 9143SOL    HW229437   1.878   2.859   2.166
 9144SOL     OW29438   2.738   3.506   2.198
 9144SOL    HW129439   2.662   3.499   2.137
 9144SOL    HW229440   2.721   3.590   2.247
 9145SOL     OW29441   2.101   2.501   3.866
 9145SOL    HW129442   2.008   2.491   3.889
 9145SOL    HW229443   2.104   2.479   3.771
 9146SOL     OW29444   2.075   2.131   4.694
 9146SOL    HW129445   2.103   2.121   4.787
 9146SOL    HW229446   1.986   2.091   4.697
 9147SOL     OW29447   1.863   2.261   4.335
 9147SOL    HW129448   1.781   2.281   4.384
 9147SOL    HW229449   1.846   2.170   4.306
 9148SOL     OW29450   2.438   3.174   4.886
 9148SOL    HW129451   2.351   3.136   4.906
 9148SOL    HW229452   2.436   3.256   4.940
 9149SOL     OW29453   3.408   3.398   4.445
 9149SOL    HW129454   3.373   3.359   4.529
 9149SOL    HW229455   3.334   3.387   4.383
 9150SOL     OW29456   2.990   2.538   4.423
 9150SOL    HW129457   3.018   2.630   4.405
 9150SOL    HW229458   2.958   2.546   4.514
 9151SOL     OW29459   3.637   2.479   3.966
 9151SOL    HW129460   3.620   2.474   3.870
 9151SOL    HW229461   3.585   2.405   3.999
 9152SOL     OW29462   2.621   3.035   4.757
 9152SOL    HW129463   2.547   3.077   4.806
 9152SOL    HW229464   2.648   3.109   4.701
 9153SOL     OW29465   2.742   2.609   5.534
 9153SOL    HW129466   2.709   2.676   5.595
 9153SOL    HW229467   2.762   2.660   5.454
 9154SOL     OW29468   2.553   2.895   4.379
 9154SOL    HW129469   2.618   2.866   4.445
 9154SOL    HW229470   2.485   2.938   4.433
 9155SOL     OW29471   2.562   3.016   5.536
 9155SOL    HW129472   2.605   3.104   5.541
 9155SOL    HW229473   2.475   3.039   5.499
 9156SOL     OW29474   2.173   3.298   4.798
 9156SOL    HW129475   2.118   3.232   4.753
 9156SOL    HW229476   2.225   3.341   4.728
 9157SOL     OW29477   3.336   3.370   5.096
 9157SOL    HW129478   3.391   3.449   5.113
 9157SOL    HW229479   3.273   3.371   5.170
 9158SOL     OW29480   2.280   2.248   5.275
 9158SOL    HW129481   2.361   2.206   5.244
 9158SOL    HW229482   2.210   2.202   5.225
 9159SOL     OW29483   3.482   2.313   4.466
 9159SOL    HW129484   3.404   2.339   4.413
 9159SOL    HW229485   3.464   2.360   4.549
 9160SOL     OW29486   2.086   3.569   4.202
 9160SOL    HW129487   2.116   3.649   4.249
 9160SOL    HW229488   2.145   3.571   4.124
 9161SOL     OW29489   2.987   3.210   5.385
 9161SOL    HW129490   3.030   3.211   5.471
 9161SOL    HW229491   2.944   3.123   5.388
 9162SOL     OW29492   2.115   3.291   4.254
 9162SOL    HW129493   2.112   3.388   4.259
 9162SOL    HW229494   2.042   3.265   4.312
 9163SOL     OW29495   2.128   2.946   4.610
 9163SOL    HW129496   2.143   2.858   4.649
 9163SOL    HW229497   2.087   2.993   4.685
 9164SOL     OW29498   2.478   3.653   5.151
 9164SOL    HW129499   2.395   3.630   5.195
 9164SOL    HW229500   2.489   3.747   5.171
 9165SOL     OW29501   2.444   2.851   3.843
 9165SOL    HW129502   2.491   2.904   3.776
 9165SOL    HW229503   2.485   2.885   3.925
 9166SOL     OW29504   3.478   1.980   5.226
 9166SOL    HW129505   3.470   2.058   5.168
 9166SOL    HW229506   3.477   2.022   5.313
 9167SOL     OW29507   1.971   2.514   4.284
 9167SOL    HW129508   1.942   2.422   4.299
 9167SOL    HW229509   1.959   2.556   4.371
 9168SOL     OW29510   3.711   3.592   4.070
 9168SOL    HW129511   3.783   3.577   4.134
 9168SOL    HW229512   3.727   3.684   4.044
 9169SOL     OW29513   1.901   3.452   3.834
 9169SOL    HW129514   1.888   3.359   3.859
 9169SOL    HW229515   1.865   3.499   3.911
 9170SOL     OW29516   3.561   2.786   4.358
 9170SOL    HW129517   3.632   2.748   4.305
 9170SOL    HW229518   3.517   2.844   4.294
 9171SOL     OW29519   3.507   2.987   4.172
 9171SOL    HW129520   3.596   2.987   4.134
 9171SOL    HW229521   3.514   3.057   4.239
 9172SOL     OW29522   1.987   2.610   5.313
 9172SOL    HW129523   2.077   2.645   5.313
 9172SOL    HW229524   1.934   2.691   5.310
 9173SOL     OW29525   2.467   3.274   4.481
 9173SOL    HW129526   2.424   3.186   4.492
 9173SOL    HW229527   2.453   3.289   4.386
 9174SOL     OW29528   3.142   3.087   5.145
 9174SOL    HW129529   3.180   3.012   5.096
 9174SOL    HW229530   3.191   3.081   5.229
 9175SOL     OW29531   2.688   1.860   4.199
 9175SOL    HW129532   2.728   1.950   4.206
 9175SOL    HW229533   2.597   1.876   4.230
 9176SOL     OW29534   2.029   2.847   4.970
 9176SOL    HW129535   2.123   2.825   4.984
 9176SOL    HW229536   1.999   2.770   4.921
 9177SOL     OW29537   3.409   2.821   3.901
 9177SOL    HW129538   3.327   2.778   3.930
 9177SOL    HW229539   3.444   2.855   3.985
 9178SOL     OW29540   3.041   3.675   5.335
 9178SOL    HW129541   3.038   3.734   5.259
 9178SOL    HW229542   3.060   3.589   5.293
 9179SOL     OW29543   2.212   2.105   5.539
 9179SOL    HW129544   2.250   2.180   5.490
 9179SOL    HW229545   2.132   2.145   5.578
 9180SOL     OW29546   3.335   3.294   4.684
 9180SOL    HW129547   3.273   3.309   4.758
 9180SOL    HW229548   3.308   3.204   4.656
 9181SOL     OW29549   3.525   3.595   4.322
 9181SOL    HW129550   3.509   3.559   4.234
 9181SOL    HW229551   3.493   3.522   4.378
 9182SOL     OW29552   2.447   2.568   3.991
 9182SOL    HW129553   2.449   2.659   3.959
 9182SOL    HW229554   2.374   2.569   4.056
 9183SOL     OW29555   3.122   2.197   4.628
 9183SOL    HW129556   3.035   2.162   4.653
 9183SOL    HW229557   3.180   2.158   4.696
 9184SOL     OW29558   3.438   3.508   4.027
 9184SOL    HW129559   3.532   3.529   4.036
 9184SOL    HW229560   3.431   3.499   3.930
 9185SOL     OW29561   2.671   2.471   5.186
 9185SOL    HW129562   2.644   2.438   5.275
 9185SOL    HW229563   2.613   2.418   5.128
 9186SOL     OW29564   3.251   2.335   5.395
 9186SOL    HW129565   3.267   2.400   5.466
 9186SOL    HW229566   3.312   2.263   5.417
 9187SOL     OW29567   2.809   2.742   5.305
 9187SOL    HW129568   2.853   2.663   5.266
 9187SOL    HW229569   2.768   2.781   5.225
 9188SOL     OW29570   2.849   2.267   4.959
 9188SOL    HW129571   2.759   2.297   4.977
 9188SOL    HW229572   2.839   2.213   4.880
 9189SOL     OW29573   2.907   2.536   4.136
 9189SOL    HW129574   2.922   2.557   4.229
 9189SOL    HW229575   2.818   2.495   4.140
 9190SOL     OW29576   1.932   2.680   4.502
 9190SOL    HW129577   2.008   2.652   4.558
 9190SOL    HW229578   1.914   2.767   4.542
 9191SOL     OW29579   1.963   3.731   5.291
 9191SOL    HW129580   1.982   3.703   5.383
 9191SOL    HW229581   1.879   3.687   5.275
 9192SOL     OW29582   2.747   2.242   3.930
 9192SOL    HW129583   2.780   2.300   3.859
 9192SOL    HW229584   2.805   2.166   3.921
 9193SOL     OW29585   3.585   2.450   5.574
 9193SOL    HW129586   3.565   2.541   5.543
 9193SOL    HW229587   3.608   2.407   5.491
 9194SOL     OW29588   3.221   3.010   4.287
 9194SOL    HW129589   3.299   3.002   4.230
 9194SOL    HW229590   3.170   3.077   4.238
 9195SOL     OW29591   2.410   2.073   4.618
 9195SOL    HW129592   2.422   2.080   4.715
 9195SOL    HW229593   2.408   2.166   4.591
 9196SOL     OW29594   2.850   3.311   4.215
 9196SOL    HW129595   2.820   3.379   4.152
 9196SOL    HW229596   2.860   3.361   4.298
 9197SOL     OW29597   2.205   3.672   4.578
 9197SOL    HW129598   2.251   3.586   4.593
 9197SOL    HW229599   2.275   3.735   4.600
 9198SOL     OW29600   3.671   2.911   4.603
 9198SOL    HW129601   3.630   2.892   4.517
 9198SOL    HW229602   3.597   2.900   4.665
 9199SOL     OW29603   3.081   3.420   5.229
 9199SOL    HW129604   3.059   3.352   5.294
 9199SOL    HW229605   3.039   3.382   5.150
 9200SOL     OW29606   2.172   2.810   3.981
 9200SOL    HW129607   2.256   2.822   3.935
 9200SOL    HW229608   2.141   2.726   3.943
 9201SOL     OW29609   3.335   2.615   4.442
 9201SOL    HW129610   3.328   2.573   4.529
 9201SOL    HW229611   3.416   2.667   4.450
 9202SOL     OW29612   2.324   3.126   5.457
 9202SOL    HW129613   2.300   3.107   5.363
 9202SOL    HW229614   2.236   3.142   5.496
 9203SOL     OW29615   2.958   3.633   3.967
 9203SOL    HW129616   2.886   3.584   4.010
 9203SOL    HW229617   2.970   3.586   3.883
 9204SOL     OW29618   2.029   2.147   5.203
 9204SOL    HW129619   1.961   2.209   5.232
 9204SOL    HW229620   2.000   2.063   5.241
 9205SOL     OW29621   3.484   3.223   3.820
 9205SOL    HW129622   3.442   3.307   3.795
 9205SOL    HW229623   3.422   3.156   3.783
 9206SOL     OW29624   2.318   3.600   4.043
 9206SOL    HW129625   2.369   3.647   4.111
 9206SOL    HW229626   2.388   3.565   3.986
 9207SOL     OW29627   3.270   2.017   4.184
 9207SOL    HW129628   3.258   1.958   4.109
 9207SOL    HW229629   3.365   2.006   4.204
 9208SOL     OW29630   2.110   3.655   4.949
 9208SOL    HW129631   2.158   3.579   4.988
 9208SOL    HW229632   2.093   3.622   4.860
 9209SOL     OW29633   2.818   3.570   4.609
 9209SOL    HW129634   2.885   3.507   4.640
 9209SOL    HW229635   2.769   3.517   4.543
 9210SOL     OW29636   2.247   2.547   4.186
 9210SOL    HW129637   2.274   2.457   4.215
 9210SOL    HW229638   2.152   2.544   4.207
 9211SOL     OW29639   3.396   2.113   5.450
 9211SOL    HW129640   3.401   2.121   5.548
 9211SOL    HW229641   3.340   2.035   5.441
 9212SOL     OW29642   2.488   2.002   3.831
 9212SOL    HW129643   2.569   1.960   3.861
 9212SOL    HW229644   2.456   1.943   3.761
 9213SOL     OW29645   2.627   2.118   5.456
 9213SOL    HW129646   2.706   2.060   5.465
 9213SOL    HW229647   2.577   2.099   5.536
 9214SOL     OW29648   2.750   3.404   4.920
 9214SOL    HW129649   2.732   3.375   4.829
 9214SOL    HW229650   2.809   3.335   4.954
 9215SOL     OW29651   3.198   2.457   5.157
 9215SOL    HW129652   3.234   2.423   5.241
 9215SOL    HW229653   3.253   2.537   5.143
 9216SOL     OW29654   2.684   3.297   4.648
 9216SOL    HW129655   2.765   3.266   4.603
 9216SOL    HW229656   2.615   3.286   4.581
 9217SOL     OW29657   2.811   2.402   4.634
 9217SOL    HW129658   2.781   2.387   4.541
 9217SOL    HW229659   2.835   2.312   4.659
 9218SOL     OW29660   2.419   1.913   4.230
 9218SOL    HW129661   2.351   1.928   4.298
 9218SOL    HW229662   2.409   1.994   4.175
 9219SOL     OW29663   3.304   3.036   3.750
 9219SOL    HW129664   3.330   2.961   3.807
 9219SOL    HW229665   3.218   3.062   3.785
 9220SOL     OW29666   2.150   1.904   3.915
 9220SOL    HW129667   2.206   1.980   3.897
 9220SOL    HW229668   2.214   1.842   3.955
 9221SOL     OW29669   2.799   2.107   4.210
 9221SOL    HW129670   2.779   2.172   4.141
 9221SOL    HW229671   2.893   2.127   4.229
 9222SOL     OW29672   2.944   2.541   5.196
 9222SOL    HW129673   2.891   2.460   5.195
 9222SOL    HW229674   3.036   2.510   5.191
 9223SOL     OW29675   3.108   3.419   4.485
 9223SOL    HW129676   3.101   3.493   4.422
 9223SOL    HW229677   3.176   3.452   4.546
 9224SOL     OW29678   2.335   3.036   4.469
 9224SOL    HW129679   2.260   3.003   4.524
 9224SOL    HW229680   2.303   3.012   4.379
 9225SOL     OW29681   3.115   3.669   4.324
 9225SOL    HW129682   3.164   3.740   4.277
 9225SOL    HW229683   3.068   3.719   4.393
 9226SOL     OW29684   2.919   2.395   3.754
 9226SOL    HW129685   2.876   2.480   3.735
 9226SOL    HW229686   2.991   2.418   3.814
 9227SOL     OW29687   1.908   2.434   5.119
 9227SOL    HW129688   2.000   2.419   5.092
 9227SOL    HW229689   1.921   2.507   5.182
 9228SOL     OW29690   2.427   2.079   4.889
 9228SOL    HW129691   2.468   2.007   4.939
 9228SOL    HW229692   2.334   2.075   4.919
 9229SOL     OW29693   2.740   2.323   4.394
 9229SOL    HW129694   2.692   2.369   4.323
 9229SOL    HW229695   2.736   2.230   4.367
 9230SOL     OW29696   2.816   1.946   4.503
 9230SOL    HW129697   2.826   1.913   4.413
 9230SOL    HW229698   2.826   1.864   4.556
 9231SOL     OW29699   3.284   3.044   4.609
 9231SOL    HW129700   3.246   2.959   4.636
 9231SOL    HW229701   3.276   3.039   4.512
 9232SOL     OW29702   3.351   2.428   4.686
 9232SOL    HW129703   3.291   2.358   4.712
 9232SOL    HW229704   3.402   2.445   4.768
 9233SOL     OW29705   3.710   2.682   4.123
 9233SOL    HW129706   3.765   2.625   4.180
 9233SOL    HW229707   3.687   2.619   4.053
 9234SOL     OW29708   2.354   3.286   3.851
 9234SOL    HW129709   2.270   3.269   3.897
 9234SOL    HW229710   2.345   3.234   3.770
 9235SOL     OW29711   3.534   3.167   4.376
 9235SOL    HW129712   3.631   3.169   4.383
 9235SOL    HW229713   3.506   3.256   4.405
 9236SOL     OW29714   3.270   2.457   3.786
 9236SOL    HW129715   3.225   2.432   3.869
 9236SOL    HW229716   3.363   2.440   3.808
 9237SOL     OW29717   2.375   2.107   4.054
 9237SOL    HW129718   2.427   2.080   3.976
 9237SOL    HW229719   2.341   2.193   4.020
 9238SOL     OW29720   3.584   3.097   5.309
 9238SOL    HW129721   3.656   3.043   5.347
 9238SOL    HW229722   3.621   3.186   5.320
 9239SOL     OW29723   2.925   3.238   5.071
 9239SOL    HW129724   2.845   3.201   5.113
 9239SOL    HW229725   2.995   3.179   5.107
 9240SOL     OW29726   3.476   3.473   5.354
 9240SOL    HW129727   3.484   3.515   5.267
 9240SOL    HW229728   3.556   3.418   5.357
 9241SOL     OW29729   2.989   3.096   4.827
 9241SOL    HW129730   2.916   3.104   4.888
 9241SOL    HW229731   2.952   3.131   4.745
 9242SOL     OW29732   3.458   2.955   4.806
 9242SOL    HW129733   3.474   3.017   4.880
 9242SOL    HW229734   3.405   3.011   4.747
 9243SOL     OW29735   2.778   1.962   5.119
 9243SOL    HW129736   2.809   1.935   5.030
 9243SOL    HW229737   2.859   1.996   5.160
 9244SOL     OW29738   2.854   2.973   5.456
 9244SOL    HW129739   2.763   2.994   5.485
 9244SOL    HW229740   2.840   2.895   5.399
 9245SOL     OW29741   2.574   2.919   4.076
 9245SOL    HW129742   2.557   2.905   4.170
 9245SOL    HW229743   2.648   2.857   4.058
 9246SOL     OW29744   2.248   2.687   5.027
 9246SOL    HW129745   2.339   2.672   5.059
 9246SOL    HW229746   2.228   2.611   4.972
 9247SOL     OW29747   3.144   2.254   4.984
 9247SOL    HW129748   3.162   2.328   5.046
 9247SOL    HW229749   3.050   2.268   4.961
 9248SOL     OW29750   1.944   3.432   5.077
 9248SOL    HW129751   1.941   3.520   5.036
 9248SOL    HW229752   2.040   3.413   5.072
 9249SOL     OW29753   2.240   2.972   4.223
 9249SOL    HW129754   2.252   3.037   4.153
 9249SOL    HW229755   2.212   2.894   4.174
 9250SOL     OW29756   2.432   2.391   4.553
 9250SOL    HW129757   2.450   2.472   4.502
 9250SOL    HW229758   2.445   2.418   4.645
 9251SOL     OW29759   3.092   3.207   4.114
 9251SOL    HW129760   3.134   3.284   4.156
 9251SOL    HW229761   2.999   3.219   4.141
 9252SOL     OW29762   3.166   3.330   4.891
 9252SOL    HW129763   3.227   3.329   4.968
 9252SOL    HW229764   3.105   3.257   4.912
 9253SOL     OW29765   3.444   2.471   4.194
 9253SOL    HW129766   3.389   2.513   4.261
 9253SOL    HW229767   3.476   2.546   4.142
 9254SOL     OW29768   2.202   3.416   5.028
 9254SOL    HW129769   2.189   3.353   4.953
 9254SOL    HW229770   2.299   3.410   5.036
 9255SOL     OW29771   2.302   2.591   5.365
 9255SOL    HW129772   2.341   2.636   5.288
 9255SOL    HW229773   2.341   2.503   5.358
 9256SOL     OW29774   3.464   2.583   5.347
 9256SOL    HW129775   3.413   2.641   5.405
 9256SOL    HW229776   3.517   2.650   5.300
 9257SOL     OW29777   2.857   1.973   5.482
 9257SOL    HW129778   2.918   2.047   5.468
 9257SOL    HW229779   2.907   1.899   5.444
 9258SOL     OW29780   2.364   1.878   5.483
 9258SOL    HW129781   2.316   1.823   5.418
 9258SOL    HW229782   2.304   1.955   5.491
 9259SOL     OW29783   2.494   2.751   4.779
 9259SOL    HW129784   2.486   2.846   4.788
 9259SOL    HW229785   2.401   2.724   4.766
 9260SOL     OW29786   3.211   2.723   4.730
 9260SOL    HW129787   3.124   2.684   4.712
 9260SOL    HW229788   3.263   2.645   4.753
 9261SOL     OW29789   3.087   2.388   3.992
 9261SOL    HW129790   3.094   2.312   4.052
 9261SOL    HW229791   3.026   2.444   4.043
 9262SOL     OW29792   2.162   2.059   4.963
 9262SOL    HW129793   2.114   2.096   5.040
 9262SOL    HW229794   2.141   1.963   4.970
 9263SOL     OW29795   1.872   3.175   5.005
 9263SOL    HW129796   1.913   3.110   5.067
 9263SOL    HW229797   1.909   3.258   5.038
 9264SOL     OW29798   2.604   2.508   4.791
 9264SOL    HW129799   2.667   2.490   4.719
 9264SOL    HW229800   2.570   2.599   4.773
 9265SOL     OW29801   3.553   2.731   5.579
 9265SOL    HW129802   3.611   2.794   5.535
 9265SOL    HW229803   3.510   2.785   5.647
 9266SOL     OW29804   2.158   1.930   4.334
 9266SOL    HW129805   2.138   2.023   4.360
 9266SOL    HW229806   2.168   1.888   4.422
 9267SOL     OW29807   3.465   2.238   4.067
 9267SOL    HW129808   3.491   2.170   4.130
 9267SOL    HW229809   3.453   2.316   4.126
 9268SOL     OW29810   2.944   2.624   4.699
 9268SOL    HW129811   2.914   2.646   4.790
 9268SOL    HW229812   2.901   2.536   4.688
 9269SOL     OW29813   2.841   3.429   5.426
 9269SOL    HW129814   2.830   3.478   5.342
 9269SOL    HW229815   2.875   3.344   5.395
 9270SOL     OW29816   3.712   3.355   5.334
 9270SOL    HW129817   3.735   3.377   5.242
 9270SOL    HW229818   3.791   3.385   5.383
 9271SOL     OW29819   2.207   2.758   5.549
 9271SOL    HW129820   2.291   2.804   5.565
 9271SOL    HW229821   2.234   2.688   5.486
 9272SOL     OW29822   3.370   2.119   3.844
 9272SOL    HW129823   3.294   2.068   3.876
 9272SOL    HW229824   3.407   2.158   3.926
 9273SOL     OW29825   3.145   2.704   3.742
 9273SOL    HW129826   3.191   2.620   3.752
 9273SOL    HW229827   3.177   2.733   3.653
 9274SOL     OW29828   2.927   3.224   4.566
 9274SOL    HW129829   2.939   3.143   4.512
 9274SOL    HW229830   2.999   3.282   4.537
 9275SOL     OW29831   2.243   2.341   4.758
 9275SOL    HW129832   2.180   2.281   4.714
 9275SOL    HW229833   2.246   2.417   4.697
 9276SOL     OW29834   3.008   2.227   5.428
 9276SOL    HW129835   2.964   2.285   5.493
 9276SOL    HW229836   3.096   2.270   5.421
 9277SOL     OW29837   3.027   2.055   5.215
 9277SOL    HW129838   3.022   2.126   5.281
 9277SOL    HW229839   3.071   2.099   5.141
 9278SOL     OW29840   1.861   3.174   3.909
 9278SOL    HW129841   1.767   3.187   3.882
 9278SOL    HW229842   1.860   3.085   3.949
 9279SOL     OW29843   1.959   3.640   4.668
 9279SOL    HW129844   1.929   3.572   4.605
 9279SOL    HW229845   2.050   3.658   4.636
 9280SOL     OW29846   2.340   3.450   4.649
 9280SOL    HW129847   2.409   3.504   4.690
 9280SOL    HW229848   2.391   3.384   4.600
 9281SOL     OW29849   2.835   2.636   4.952
 9281SOL    HW129850   2.877   2.598   5.032
 9281SOL    HW229851   2.744   2.603   4.961
 9282SOL     OW29852   1.874   2.375   4.831
 9282SOL    HW129853   1.951   2.380   4.774
 9282SOL    HW229854   1.912   2.405   4.915
 9283SOL     OW29855   2.081   2.370   5.426
 9283SOL    HW129856   2.141   2.334   5.359
 9283SOL    HW229857   2.046   2.450   5.382
 9284SOL     OW29858   3.248   2.775   5.378
 9284SOL    HW129859   3.277   2.867   5.375
 9284SOL    HW229860   3.248   2.750   5.284
 9285SOL     OW29861   2.661   2.433   4.120
 9285SOL    HW129862   2.678   2.369   4.049
 9285SOL    HW229863   2.588   2.485   4.083
 9286SOL     OW29864   3.491   2.482   4.916
 9286SOL    HW129865   3.465   2.437   4.997
 9286SOL    HW229866   3.574   2.438   4.893
 9287SOL     OW29867   2.107   3.410   5.442
 9287SOL    HW129868   2.096   3.474   5.514
 9287SOL    HW229869   2.113   3.325   5.491
 9288SOL     OW29870   2.535   2.340   4.993
 9288SOL    HW129871   2.494   2.263   4.951
 9288SOL    HW229872   2.544   2.404   4.919
 9289SOL     OW29873   2.786   3.550   5.189
 9289SOL    HW129874   2.779   3.515   5.098
 9289SOL    HW229875   2.777   3.646   5.177
 9290SOL     OW29876   2.310   2.330   3.927
 9290SOL    HW129877   2.374   2.403   3.934
 9290SOL    HW229878   2.226   2.380   3.927
 9291SOL     OW29879   1.959   2.991   5.184
 9291SOL    HW129880   2.047   3.014   5.218
 9291SOL    HW229881   1.985   2.935   5.107
 9292SOL     OW29882   3.192   2.899   4.958
 9292SOL    HW129883   3.205   2.845   4.878
 9292SOL    HW229884   3.127   2.963   4.928
 9293SOL     OW29885   3.168   2.720   4.015
 9293SOL    HW129886   3.089   2.685   4.057
 9293SOL    HW229887   3.144   2.723   3.921
 9294SOL     OW29888   3.623   3.611   4.859
 9294SOL    HW129889   3.696   3.628   4.796
 9294SOL    HW229890   3.608   3.515   4.843
 9295SOL     OW29891   3.102   3.591   4.841
 9295SOL    HW129892   3.189   3.616   4.807
 9295SOL    HW229893   3.111   3.494   4.854
 9296SOL     OW29894   1.962   3.122   4.754
 9296SOL    HW129895   1.929   3.137   4.845
 9296SOL    HW229896   1.895   3.063   4.717
 9297SOL     OW29897   2.558   3.506   5.459
 9297SOL    HW129898   2.520   3.593   5.440
 9297SOL    HW229899   2.636   3.502   5.402
 9298SOL     OW29900   3.546   1.990   4.237
 9298SOL    HW129901   3.621   1.981   4.177
 9298SOL    HW229902   3.545   1.902   4.282
 9299SOL     OW29903   3.224   3.446   4.204
 9299SOL    HW129904   3.281   3.470   4.128
 9299SOL    HW229905   3.183   3.531   4.227
 9300SOL     OW29906   2.016   3.658   5.549
 9300SOL    HW129907   1.972   3.586   5.600
 9300SOL    HW229908   2.066   3.701   5.620
 9301SOL     OW29909   3.110   2.778   4.387
 9301SOL    HW129910   3.191   2.728   4.409
 9301SOL    HW229911   3.148   2.857   4.345
 9302SOL     OW29912   2.668   3.126   5.150
 9302SOL    HW129913   2.641   3.169   5.233
 9302SOL    HW229914   2.586   3.133   5.098
 9303SOL     OW29915   2.522   3.489   3.880
 9303SOL    HW129916   2.545   3.496   3.785
 9303SOL    HW229917   2.465   3.410   3.878
 9304SOL     OW29918   3.491   3.590   5.109
 9304SOL    HW129919   3.537   3.599   5.024
 9304SOL    HW229920   3.480   3.683   5.138
 9305SOL     OW29921   3.704   2.035   4.698
 9305SOL    HW129922   3.719   1.945   4.664
 9305SOL    HW229923   3.616   2.057   4.659
 9306SOL     OW29924   2.106   2.175   4.426
 9306SOL    HW129925   2.024   2.225   4.408
 9306SOL    HW229926   2.108   2.170   4.523
 9307SOL     OW29927   3.047   3.493   3.747
 9307SOL    HW129928   3.054   3.398   3.766
 9307SOL    HW229929   2.987   3.496   3.670
 9308SOL     OW29930   2.684   2.863   5.102
 9308SOL    HW129931   2.697   2.870   5.007
 9308SOL    HW229932   2.676   2.956   5.130
 9309SOL     OW29933   2.772   2.763   3.992
 9309SOL    HW129934   2.847   2.804   3.944
 9309SOL    HW229935   2.812   2.687   4.037
 9310SOL     OW29936   3.416   3.488   3.755
 9310SOL    HW129937   3.321   3.499   3.750
 9310SOL    HW229938   3.442   3.489   3.660
 9311SOL     OW29939   3.471   3.173   4.987
 9311SOL    HW129940   3.514   3.141   5.067
 9311SOL    HW229941   3.412   3.243   5.022
 9312SOL     OW29942   2.906   2.969   4.441
 9312SOL    HW129943   2.837   2.920   4.489
 9312SOL    HW229944   2.967   2.898   4.416
 9313SOL     OW29945   2.890   2.092   4.715
 9313SOL    HW129946   2.858   2.054   4.631
 9313SOL    HW229947   2.892   2.013   4.771
 9314SOL     OW29948   2.476   3.348   4.217
 9314SOL    HW129949   2.526   3.305   4.146
 9314SOL    HW229950   2.401   3.386   4.171
 9315SOL     OW29951   3.566   2.233   5.104
 9315SOL    HW129952   3.625   2.310   5.100
 9315SOL    HW229953   3.615   2.168   5.050
 9316SOL     OW29954   2.106   3.235   3.994
 9316SOL    HW129955   2.010   3.216   3.988
 9316SOL    HW229956   2.116   3.254   4.090
 9317SOL     OW29957   1.979   2.889   5.472
 9317SOL    HW129958   1.909   2.859   5.532
 9317SOL    HW229959   2.058   2.839   5.501
 9318SOL     OW29960   2.537   2.053   5.203
 9318SOL    HW129961   2.623   2.027   5.166
 9318SOL    HW229962   2.562   2.089   5.290
 9319SOL     OW29963   1.967   2.197   3.722
 9319SOL    HW129964   1.872   2.211   3.727
 9319SOL    HW229965   1.996   2.272   3.666
 9320SOL     OW29966   3.316   2.712   5.110
 9320SOL    HW129967   3.280   2.783   5.053
 9320SOL    HW229968   3.408   2.740   5.123
 9321SOL     OW29969   1.914   2.021   4.025
 9321SOL    HW129970   1.913   2.111   3.990
 9321SOL    HW229971   2.003   1.990   4.001
 9322SOL     OW29972   3.069   3.219   3.841
 9322SOL    HW129973   2.988   3.167   3.847
 9322SOL    HW229974   3.096   3.222   3.935
 9323SOL     OW29975   2.483   2.660   5.158
 9323SOL    HW129976   2.527   2.746   5.148
 9323SOL    HW229977   2.560   2.602   5.169
 9324SOL     OW29978   3.367   3.666   4.703
 9324SOL    HW129979   3.403   3.683   4.616
 9324SOL    HW229980   3.444   3.635   4.753
 9325SOL     OW29981   2.592   2.394   5.436
 9325SOL    HW129982   2.642   2.455   5.493
 9325SOL    HW229983   2.614   2.305   5.466
 9326SOL     OW29984   3.320   3.049   5.347
 9326SOL    HW129985   3.316   3.052   5.445
 9326SOL    HW229986   3.416   3.064   5.332
 9327SOL     OW29987   2.238   3.604   5.289
 9327SOL    HW129988   2.152   3.644   5.268
 9327SOL    HW229989   2.211   3.515   5.318
 9328SOL     OW29990   3.593   2.742   4.946
 9328SOL    HW129991   3.553   2.656   4.923
 9328SOL    HW229992   3.537   2.806   4.898
 9329SOL     OW29993   3.074   2.201   4.194
 9329SOL    HW129994   3.138   2.128   4.189
 9329SOL    HW229995   3.112   2.254   4.267
 9330SOL     OW29996   2.455   2.610   4.377
 9330SOL    HW129997   2.481   2.703   4.373
 9330SOL    HW229998   2.375   2.608   4.322
 9331SOL     OW29999   3.628   2.241   5.362
 9331SOL    HW130000   3.595   2.252   5.271
 9331SOL    HW230001   3.552   2.198   5.404
 9332SOL     OW30002   3.581   2.787   5.218
 9332SOL    HW130003   3.637   2.852   5.263
 9332SOL    HW230004   3.628   2.772   5.134
 9333SOL     OW30005   2.714   3.225   3.756
 9333SOL    HW130006   2.694   3.241   3.850
 9333SOL    HW230007   2.741   3.311   3.722
 9334SOL     OW30008   2.508   3.672   4.673
 9334SOL    HW130009   2.495   3.764   4.647
 9334SOL    HW230010   2.602   3.656   4.657
 9335SOL     OW30011   2.737   2.805   4.576
 9335SOL    HW130012   2.791   2.737   4.619
 9335SOL    HW230013   2.702   2.854   4.652
 9336SOL     OW30014   2.956   2.872   3.824
 9336SOL    HW130015   2.921   2.919   3.746
 9336SOL    HW230016   3.016   2.808   3.781
 9337SOL     OW30017   3.718   3.424   4.574
 9337SOL    HW130018   3.627   3.420   4.543
 9337SOL    HW230019   3.719   3.358   4.644
 9338SOL     OW30020   2.094   3.183   5.578
 9338SOL    HW130021   2.033   3.123   5.534
 9338SOL    HW230022   2.058   3.186   5.668
 9339SOL     OW30023   1.943   3.108   4.382
 9339SOL    HW130024   1.942   3.058   4.464
 9339SOL    HW230025   2.028   3.081   4.345
 9340SOL     OW30026   2.543   3.256   5.350
 9340SOL    HW130027   2.461   3.206   5.362
 9340SOL    HW230028   2.519   3.342   5.389
 9341SOL     OW30029   3.695   2.034   4.960
 9341SOL    HW130030   3.693   1.938   4.957
 9341SOL    HW230031   3.696   2.055   4.864
 9342SOL     OW30032   2.298   2.289   4.256
 9342SOL    HW130033   2.343   2.215   4.212
 9342SOL    HW230034   2.255   2.248   4.333
 9343SOL     OW30035   3.575   3.360   4.810
 9343SOL    HW130036   3.491   3.339   4.767
 9343SOL    HW230037   3.576   3.292   4.880
 9344SOL     OW30038   2.175   2.392   5.008
 9344SOL    HW130039   2.260   2.378   5.051
 9344SOL    HW230040   2.197   2.373   4.914
 9345SOL     OW30041   2.681   3.460   4.401
 9345SOL    HW130042   2.670   3.483   4.308
 9345SOL    HW230043   2.603   3.404   4.418
 9346SOL     OW30044   3.295   2.110   4.814
 9346SOL    HW130045   3.310   2.020   4.847
 9346SOL    HW230046   3.247   2.154   4.888
 9347SOL     OW30047   2.874   1.860   4.885
 9347SOL    HW130048   2.823   1.788   4.847
 9347SOL    HW230049   2.965   1.821   4.884
 9348SOL     OW30050   2.652   3.199   4.040
 9348SOL    HW130051   2.623   3.106   4.037
 9348SOL    HW230052   2.717   3.197   4.111
 9349SOL     OW30053   2.466   3.430   4.994
 9349SOL    HW130054   2.476   3.511   5.049
 9349SOL    HW230055   2.558   3.416   4.967
 9350SOL     OW30056   3.173   1.907   3.875
 9350SOL    HW130057   3.183   1.823   3.828
 9350SOL    HW230058   3.090   1.890   3.924
 9351SOL     OW30059   3.179   2.341   4.405
 9351SOL    HW130060   3.111   2.411   4.399
 9351SOL    HW230061   3.154   2.295   4.488
 9352SOL     OW30062   3.466   2.066   4.583
 9352SOL    HW130063   3.393   2.075   4.646
 9352SOL    HW230064   3.462   2.148   4.532
 9353SOL     OW30065   1.921   2.932   4.036
 9353SOL    HW130066   2.016   2.922   4.017
 9353SOL    HW230067   1.897   2.840   4.059
 9354SOL     OW30068   2.738   3.510   4.053
 9354SOL    HW130069   2.659   3.496   3.998
 9354SOL    HW230070   2.716   3.592   4.104
 9355SOL     OW30071   2.091   2.504   5.717
 9355SOL    HW130072   1.999   2.481   5.733
 9355SOL    HW230073   2.104   2.486   5.623
 9356SOL     OW30074   2.084   2.138   6.588
 9356SOL    HW130075   2.109   2.113   6.679
 9356SOL    HW230076   1.995   2.098   6.581
 9357SOL     OW30077   1.852   2.247   6.230
 9357SOL    HW130078   1.766   2.261   6.276
 9357SOL    HW230079   1.829   2.174   6.171
 9358SOL     OW30080   2.442   3.180   6.752
 9358SOL    HW130081   2.351   3.176   6.719
 9358SOL    HW230082   2.444   3.270   6.790
 9359SOL     OW30083   3.422   3.376   6.296
 9359SOL    HW130084   3.386   3.352   6.384
 9359SOL    HW230085   3.348   3.359   6.235
 9360SOL     OW30086   2.994   2.542   6.302
 9360SOL    HW130087   3.022   2.630   6.271
 9360SOL    HW230088   2.955   2.563   6.388
 9361SOL     OW30089   3.631   2.468   5.831
 9361SOL    HW130090   3.618   2.471   5.734
 9361SOL    HW230091   3.594   2.381   5.851
 9362SOL     OW30092   2.585   3.022   6.593
 9362SOL    HW130093   2.529   3.073   6.655
 9362SOL    HW230094   2.667   3.009   6.643
 9363SOL     OW30095   2.747   2.602   7.388
 9363SOL    HW130096   2.722   2.667   7.454
 9363SOL    HW230097   2.774   2.657   7.312
 9364SOL     OW30098   2.556   2.896   6.237
 9364SOL    HW130099   2.620   2.859   6.300
 9364SOL    HW230100   2.489   2.936   6.294
 9365SOL     OW30101   2.560   3.013   7.384
 9365SOL    HW130102   2.602   3.099   7.406
 9365SOL    HW230103   2.470   3.041   7.356
 9366SOL     OW30104   2.186   3.286   6.648
 9366SOL    HW130105   2.109   3.249   6.601
 9366SOL    HW230106   2.227   3.346   6.583
 9367SOL     OW30107   3.340   3.369   6.961
 9367SOL    HW130108   3.395   3.449   6.974
 9367SOL    HW230109   3.270   3.383   7.027
 9368SOL     OW30110   2.287   2.254   7.125
 9368SOL    HW130111   2.366   2.201   7.106
 9368SOL    HW230112   2.216   2.200   7.088
 9369SOL     OW30113   3.483   2.308   6.320
 9369SOL    HW130114   3.423   2.341   6.252
 9369SOL    HW230115   3.459   2.363   6.396
 9370SOL     OW30116   2.089   3.563   6.072
 9370SOL    HW130117   2.113   3.647   6.117
 9370SOL    HW230118   2.138   3.571   5.988
 9371SOL     OW30119   2.985   3.210   7.238
 9371SOL    HW130120   3.028   3.216   7.325
 9371SOL    HW230121   2.945   3.121   7.246
 9372SOL     OW30122   2.113   3.294   6.126
 9372SOL    HW130123   2.108   3.392   6.123
 9372SOL    HW230124   2.036   3.272   6.180
 9373SOL     OW30125   2.133   2.944   6.483
 9373SOL    HW130126   2.131   2.874   6.550
 9373SOL    HW230127   2.078   3.012   6.526
 9374SOL     OW30128   2.467   3.664   6.992
 9374SOL    HW130129   2.397   3.636   7.053
 9374SOL    HW230130   2.490   3.753   7.026
 9375SOL     OW30131   2.456   2.850   5.716
 9375SOL    HW130132   2.497   2.902   5.644
 9375SOL    HW230133   2.494   2.893   5.795
 9376SOL     OW30134   3.476   1.972   7.087
 9376SOL    HW130135   3.459   2.046   7.027
 9376SOL    HW230136   3.486   2.017   7.172
 9377SOL     OW30137   3.712   3.612   5.933
 9377SOL    HW130138   3.788   3.597   5.993
 9377SOL    HW230139   3.728   3.705   5.909
 9378SOL     OW30140   1.926   3.457   5.698
 9378SOL    HW130141   1.907   3.364   5.718
 9378SOL    HW230142   1.896   3.501   5.780
 9379SOL     OW30143   3.554   2.746   6.221
 9379SOL    HW130144   3.622   2.712   6.162
 9379SOL    HW230145   3.516   2.817   6.166
 9380SOL     OW30146   3.495   2.979   6.034
 9380SOL    HW130147   3.583   2.977   5.993
 9380SOL    HW230148   3.508   3.045   6.106
 9381SOL     OW30149   1.992   2.612   7.171
 9381SOL    HW130150   2.087   2.632   7.181
 9381SOL    HW230151   1.953   2.690   7.214
 9382SOL     OW30152   2.467   3.262   6.354
 9382SOL    HW130153   2.420   3.175   6.362
 9382SOL    HW230154   2.458   3.277   6.258
 9383SOL     OW30155   3.142   3.090   7.008
 9383SOL    HW130156   3.178   3.017   6.955
 9383SOL    HW230157   3.193   3.082   7.091
 9384SOL     OW30158   2.691   1.864   6.075
 9384SOL    HW130159   2.721   1.957   6.074
 9384SOL    HW230160   2.595   1.873   6.088
 9385SOL     OW30161   2.043   2.842   6.840
 9385SOL    HW130162   2.133   2.807   6.827
 9385SOL    HW230163   1.987   2.770   6.806
 9386SOL     OW30164   3.387   2.852   5.793
 9386SOL    HW130165   3.311   2.801   5.826
 9386SOL    HW230166   3.430   2.881   5.876
 9387SOL     OW30167   3.030   3.668   7.194
 9387SOL    HW130168   3.052   3.740   7.133
 9387SOL    HW230169   3.060   3.589   7.146
 9388SOL     OW30170   2.180   2.091   7.411
 9388SOL    HW130171   2.240   2.164   7.393
 9388SOL    HW230172   2.102   2.139   7.444
 9389SOL     OW30173   3.333   3.290   6.539
 9389SOL    HW130174   3.277   3.306   6.618
 9389SOL    HW230175   3.306   3.199   6.514
 9390SOL     OW30176   3.511   3.596   6.184
 9390SOL    HW130177   3.507   3.557   6.096
 9390SOL    HW230178   3.487   3.520   6.240
 9391SOL     OW30179   2.455   2.584   5.831
 9391SOL    HW130180   2.461   2.666   5.779
 9391SOL    HW230181   2.385   2.606   5.896
 9392SOL     OW30182   3.124   2.207   6.510
 9392SOL    HW130183   3.039   2.166   6.532
 9392SOL    HW230184   3.186   2.162   6.572
 9393SOL     OW30185   3.435   3.503   5.893
 9393SOL    HW130186   3.526   3.534   5.904
 9393SOL    HW230187   3.431   3.495   5.796
 9394SOL     OW30188   2.657   2.499   7.040
 9394SOL    HW130189   2.644   2.461   7.130
 9394SOL    HW230190   2.613   2.432   6.986
 9395SOL     OW30191   3.256   2.341   7.260
 9395SOL    HW130192   3.262   2.402   7.336
 9395SOL    HW230193   3.317   2.269   7.286
 9396SOL     OW30194   2.826   2.745   7.168
 9396SOL    HW130195   2.866   2.664   7.129
 9396SOL    HW230196   2.778   2.781   7.090
 9397SOL     OW30197   2.840   2.265   6.819
 9397SOL    HW130198   2.748   2.283   6.841
 9397SOL    HW230199   2.833   2.205   6.743
 9398SOL     OW30200   2.909   2.541   5.997
 9398SOL    HW130201   2.918   2.557   6.092
 9398SOL    HW230202   2.821   2.497   5.992
 9399SOL     OW30203   1.984   2.669   6.349
 9399SOL    HW130204   2.047   2.678   6.423
 9399SOL    HW230205   1.927   2.747   6.363
 9400SOL     OW30206   1.968   3.722   7.152
 9400SOL    HW130207   1.984   3.697   7.246
 9400SOL    HW230208   1.878   3.688   7.138
 9401SOL     OW30209   2.739   2.234   5.801
 9401SOL    HW130210   2.778   2.291   5.733
 9401SOL    HW230211   2.760   2.147   5.765
 9402SOL     OW30212   3.578   2.447   7.429
 9402SOL    HW130213   3.543   2.524   7.378
 9402SOL    HW230214   3.611   2.392   7.356
 9403SOL     OW30215   3.221   3.014   6.148
 9403SOL    HW130216   3.299   3.001   6.091
 9403SOL    HW230217   3.167   3.073   6.093
 9404SOL     OW30218   2.417   2.067   6.486
 9404SOL    HW130219   2.426   2.078   6.583
 9404SOL    HW230220   2.409   2.157   6.454
 9405SOL     OW30221   2.836   3.303   6.083
 9405SOL    HW130222   2.795   3.358   6.013
 9405SOL    HW230223   2.872   3.370   6.142
 9406SOL     OW30224   2.198   3.673   6.442
 9406SOL    HW130225   2.237   3.584   6.455
 9406SOL    HW230226   2.272   3.731   6.462
 9407SOL     OW30227   3.683   2.909   6.459
 9407SOL    HW130228   3.630   2.894   6.379
 9407SOL    HW230229   3.618   2.896   6.530
 9408SOL     OW30230   3.090   3.424   7.077
 9408SOL    HW130231   3.070   3.362   7.149
 9408SOL    HW230232   3.044   3.382   7.004
 9409SOL     OW30233   2.172   2.801   5.845
 9409SOL    HW130234   2.239   2.840   5.787
 9409SOL    HW230235   2.145   2.724   5.793
 9410SOL     OW30236   3.329   2.622   6.310
 9410SOL    HW130237   3.340   2.581   6.397
 9410SOL    HW230238   3.417   2.659   6.292
 9411SOL     OW30239   2.323   3.133   7.305
 9411SOL    HW130240   2.280   3.140   7.217
 9411SOL    HW230241   2.245   3.134   7.363
 9412SOL     OW30242   2.956   3.640   5.832
 9412SOL    HW130243   2.886   3.585   5.872
 9412SOL    HW230244   2.972   3.594   5.748
 9413SOL     OW30245   2.027   2.151   7.084
 9413SOL    HW130246   1.958   2.207   7.123
 9413SOL    HW230247   2.012   2.066   7.128
 9414SOL     OW30248   3.497   3.218   5.681
 9414SOL    HW130249   3.455   3.302   5.656
 9414SOL    HW230250   3.438   3.152   5.641
 9415SOL     OW30251   2.315   3.593   5.901
 9415SOL    HW130252   2.369   3.643   5.964
 9415SOL    HW230253   2.381   3.554   5.842
 9416SOL     OW30254   3.265   1.951   6.022
 9416SOL    HW130255   3.261   1.917   5.930
 9416SOL    HW230256   3.359   1.970   6.035
 9417SOL     OW30257   2.104   3.660   6.815
 9417SOL    HW130258   2.155   3.587   6.854
 9417SOL    HW230259   2.089   3.628   6.725
 9418SOL     OW30260   2.820   3.510   6.486
 9418SOL    HW130261   2.915   3.499   6.467
 9418SOL    HW230262   2.780   3.503   6.398
 9419SOL     OW30263   2.285   2.566   6.044
 9419SOL    HW130264   2.312   2.472   6.039
 9419SOL    HW230265   2.207   2.559   6.100
 9420SOL     OW30266   3.403   2.122   7.315
 9420SOL    HW130267   3.398   2.124   7.414
 9420SOL    HW230268   3.345   2.048   7.295
 9421SOL     OW30269   2.492   1.991   5.689
 9421SOL    HW130270   2.564   1.930   5.711
 9421SOL    HW230271   2.443   1.941   5.620
 9422SOL     OW30272   2.637   2.119   7.321
 9422SOL    HW130273   2.717   2.063   7.335
 9422SOL    HW230274   2.585   2.101   7.400
 9423SOL     OW30275   2.747   3.401   6.785
 9423SOL    HW130276   2.775   3.405   6.693
 9423SOL    HW230277   2.814   3.344   6.827
 9424SOL     OW30278   3.196   2.461   7.013
 9424SOL    HW130279   3.235   2.423   7.095
 9424SOL    HW230280   3.248   2.543   7.001
 9425SOL     OW30281   2.806   2.377   6.500
 9425SOL    HW130282   2.782   2.368   6.405
 9425SOL    HW230283   2.840   2.287   6.519
 9426SOL     OW30284   2.420   1.903   6.091
 9426SOL    HW130285   2.342   1.909   6.149
 9426SOL    HW230286   2.409   1.982   6.035
 9427SOL     OW30287   3.307   3.037   5.610
 9427SOL    HW130288   3.331   2.965   5.672
 9427SOL    HW230289   3.220   3.064   5.642
 9428SOL     OW30290   2.142   1.903   5.781
 9428SOL    HW130291   2.201   1.970   5.742
 9428SOL    HW230292   2.207   1.841   5.820
 9429SOL     OW30293   2.790   2.116   6.084
 9429SOL    HW130294   2.772   2.161   6.000
 9429SOL    HW230295   2.887   2.129   6.091
 9430SOL     OW30296   2.946   2.542   7.047
 9430SOL    HW130297   2.898   2.459   7.050
 9430SOL    HW230298   3.040   2.515   7.040
 9431SOL     OW30299   3.079   3.455   6.385
 9431SOL    HW130300   3.090   3.509   6.304
 9431SOL    HW230301   3.165   3.466   6.427
 9432SOL     OW30302   2.332   3.035   6.326
 9432SOL    HW130303   2.259   2.998   6.380
 9432SOL    HW230304   2.301   3.011   6.236
 9433SOL     OW30305   3.116   3.670   6.198
 9433SOL    HW130306   3.168   3.731   6.140
 9433SOL    HW230307   3.078   3.733   6.261
 9434SOL     OW30308   2.918   2.396   5.613
 9434SOL    HW130309   2.869   2.479   5.598
 9434SOL    HW230310   2.986   2.420   5.678
 9435SOL     OW30311   1.910   2.431   6.978
 9435SOL    HW130312   2.004   2.414   6.964
 9435SOL    HW230313   1.914   2.508   7.039
 9436SOL     OW30314   2.431   2.098   6.757
 9436SOL    HW130315   2.477   2.025   6.801
 9436SOL    HW230316   2.340   2.084   6.789
 9437SOL     OW30317   2.735   2.330   6.251
 9437SOL    HW130318   2.692   2.374   6.177
 9437SOL    HW230319   2.752   2.242   6.215
 9438SOL     OW30320   2.873   1.942   6.353
 9438SOL    HW130321   2.832   1.922   6.267
 9438SOL    HW230322   2.858   1.858   6.401
 9439SOL     OW30323   3.283   3.042   6.460
 9439SOL    HW130324   3.251   2.953   6.482
 9439SOL    HW230325   3.283   3.038   6.363
 9440SOL     OW30326   3.351   2.442   6.554
 9440SOL    HW130327   3.289   2.371   6.576
 9440SOL    HW230328   3.410   2.445   6.632
 9441SOL     OW30329   3.701   2.684   5.987
 9441SOL    HW130330   3.761   2.628   6.040
 9441SOL    HW230331   3.679   2.622   5.915
 9442SOL     OW30332   2.357   3.280   5.705
 9442SOL    HW130333   2.274   3.268   5.754
 9442SOL    HW230334   2.344   3.222   5.629
 9443SOL     OW30335   3.546   3.134   6.247
 9443SOL    HW130336   3.644   3.137   6.243
 9443SOL    HW230337   3.521   3.226   6.264
 9444SOL     OW30338   3.262   2.466   5.650
 9444SOL    HW130339   3.225   2.424   5.730
 9444SOL    HW230340   3.357   2.458   5.664
 9445SOL     OW30341   2.387   2.099   5.912
 9445SOL    HW130342   2.434   2.063   5.834
 9445SOL    HW230343   2.354   2.183   5.874
 9446SOL     OW30344   3.591   3.092   7.159
 9446SOL    HW130345   3.679   3.052   7.161
 9446SOL    HW230346   3.614   3.185   7.174
 9447SOL     OW30347   2.930   3.218   6.906
 9447SOL    HW130348   2.851   3.187   6.955
 9447SOL    HW230349   3.001   3.173   6.957
 9448SOL     OW30350   3.474   3.472   7.222
 9448SOL    HW130351   3.481   3.517   7.136
 9448SOL    HW230352   3.553   3.415   7.223
 9449SOL     OW30353   2.957   3.084   6.673
 9449SOL    HW130354   2.937   3.135   6.752
 9449SOL    HW230355   2.951   3.148   6.601
 9450SOL     OW30356   3.456   2.958   6.668
 9450SOL    HW130357   3.469   3.018   6.745
 9450SOL    HW230358   3.404   3.015   6.610
 9451SOL     OW30359   2.775   1.975   6.970
 9451SOL    HW130360   2.808   1.936   6.886
 9451SOL    HW230361   2.857   2.009   7.010
 9452SOL     OW30362   2.858   2.972   7.323
 9452SOL    HW130363   2.767   2.994   7.347
 9452SOL    HW230364   2.847   2.896   7.263
 9453SOL     OW30365   2.583   2.938   5.950
 9453SOL    HW130366   2.569   2.914   6.043
 9453SOL    HW230367   2.649   2.871   5.920
 9454SOL     OW30368   2.279   2.676   6.842
 9454SOL    HW130369   2.350   2.677   6.909
 9454SOL    HW230370   2.237   2.589   6.857
 9455SOL     OW30371   3.144   2.253   6.846
 9455SOL    HW130372   3.163   2.330   6.904
 9455SOL    HW230373   3.052   2.270   6.818
 9456SOL     OW30374   1.931   3.433   6.928
 9456SOL    HW130375   1.926   3.520   6.888
 9456SOL    HW230376   2.026   3.411   6.919
 9457SOL     OW30377   2.227   2.966   6.090
 9457SOL    HW130378   2.224   3.035   6.023
 9457SOL    HW230379   2.233   2.886   6.035
 9458SOL     OW30380   2.395   2.406   6.439
 9458SOL    HW130381   2.432   2.470   6.374
 9458SOL    HW230382   2.458   2.414   6.512
 9459SOL     OW30383   3.078   3.194   5.981
 9459SOL    HW130384   3.125   3.274   6.009
 9459SOL    HW230385   2.987   3.214   6.005
 9460SOL     OW30386   3.174   3.329   6.760
 9460SOL    HW130387   3.241   3.341   6.831
 9460SOL    HW230388   3.118   3.261   6.799
 9461SOL     OW30389   3.442   2.468   6.060
 9461SOL    HW130390   3.395   2.535   6.111
 9461SOL    HW230391   3.484   2.518   5.989
 9462SOL     OW30392   2.192   3.385   6.891
 9462SOL    HW130393   2.187   3.338   6.805
 9462SOL    HW230394   2.287   3.404   6.895
 9463SOL     OW30395   2.301   2.589   7.218
 9463SOL    HW130396   2.348   2.637   7.147
 9463SOL    HW230397   2.336   2.500   7.208
 9464SOL     OW30398   3.491   2.635   7.265
 9464SOL    HW130399   3.402   2.674   7.268
 9464SOL    HW230400   3.531   2.683   7.190
 9465SOL     OW30401   2.857   1.967   7.352
 9465SOL    HW130402   2.921   2.038   7.336
 9465SOL    HW230403   2.902   1.893   7.309
 9466SOL     OW30404   2.356   1.877   7.344
 9466SOL    HW130405   2.318   1.819   7.275
 9466SOL    HW230406   2.290   1.948   7.349
 9467SOL     OW30407   2.445   2.749   6.625
 9467SOL    HW130408   2.469   2.842   6.627
 9467SOL    HW230409   2.390   2.738   6.704
 9468SOL     OW30410   3.224   2.719   6.606
 9468SOL    HW130411   3.140   2.686   6.570
 9468SOL    HW230412   3.275   2.637   6.615
 9469SOL     OW30413   3.088   2.378   5.854
 9469SOL    HW130414   3.090   2.302   5.915
 9469SOL    HW230415   3.027   2.438   5.901
 9470SOL     OW30416   2.163   2.063   6.842
 9470SOL    HW130417   2.109   2.088   6.919
 9470SOL    HW230418   2.141   1.967   6.834
 9471SOL     OW30419   1.915   3.162   6.864
 9471SOL    HW130420   1.923   3.103   6.942
 9471SOL    HW230421   1.903   3.249   6.904
 9472SOL     OW30422   2.585   2.503   6.634
 9472SOL    HW130423   2.664   2.481   6.582
 9472SOL    HW230424   2.562   2.594   6.608
 9473SOL     OW30425   3.627   2.809   7.431
 9473SOL    HW130426   3.583   2.746   7.372
 9473SOL    HW230427   3.559   2.823   7.498
 9474SOL     OW30428   2.165   1.914   6.207
 9474SOL    HW130429   2.140   2.005   6.230
 9474SOL    HW230430   2.173   1.872   6.295
 9475SOL     OW30431   3.460   2.240   5.933
 9475SOL    HW130432   3.492   2.170   5.991
 9475SOL    HW230433   3.450   2.317   5.994
 9476SOL     OW30434   2.921   2.615   6.558
 9476SOL    HW130435   2.898   2.633   6.651
 9476SOL    HW230436   2.890   2.522   6.548
 9477SOL     OW30437   2.842   3.428   7.289
 9477SOL    HW130438   2.838   3.483   7.208
 9477SOL    HW230439   2.875   3.343   7.254
 9478SOL     OW30440   3.713   3.347   7.187
 9478SOL    HW130441   3.735   3.379   7.097
 9478SOL    HW230442   3.792   3.374   7.237
 9479SOL     OW30443   2.214   2.767   7.389
 9479SOL    HW130444   2.297   2.795   7.431
 9479SOL    HW230445   2.244   2.691   7.334
 9480SOL     OW30446   3.372   2.119   5.711
 9480SOL    HW130447   3.301   2.062   5.746
 9480SOL    HW230448   3.406   2.164   5.791
 9481SOL     OW30449   3.148   2.702   5.609
 9481SOL    HW130450   3.186   2.613   5.620
 9481SOL    HW230451   3.182   2.726   5.520
 9482SOL     OW30452   2.918   3.235   6.433
 9482SOL    HW130453   2.942   3.152   6.387
 9482SOL    HW230454   2.993   3.295   6.415
 9483SOL     OW30455   2.146   2.669   6.578
 9483SOL    HW130456   2.239   2.684   6.557
 9483SOL    HW230457   2.150   2.579   6.615
 9484SOL     OW30458   2.179   2.390   6.588
 9484SOL    HW130459   2.159   2.295   6.576
 9484SOL    HW230460   2.251   2.404   6.522
 9485SOL     OW30461   3.014   2.227   7.276
 9485SOL    HW130462   2.970   2.280   7.346
 9485SOL    HW230463   3.104   2.266   7.278
 9486SOL     OW30464   3.023   2.061   7.058
 9486SOL    HW130465   3.019   2.123   7.133
 9486SOL    HW230466   3.073   2.112   6.993
 9487SOL     OW30467   1.860   3.199   5.791
 9487SOL    HW130468   1.770   3.209   5.753
 9487SOL    HW230469   1.861   3.105   5.817
 9488SOL     OW30470   1.953   3.649   6.530
 9488SOL    HW130471   1.935   3.571   6.473
 9488SOL    HW230472   2.043   3.673   6.496
 9489SOL     OW30473   2.347   3.452   6.507
 9489SOL    HW130474   2.415   3.522   6.510
 9489SOL    HW230475   2.390   3.382   6.455
 9490SOL     OW30476   2.837   2.652   6.821
 9490SOL    HW130477   2.895   2.618   6.892
 9490SOL    HW230478   2.753   2.610   6.844
 9491SOL     OW30479   1.898   2.396   6.691
 9491SOL    HW130480   1.983   2.375   6.650
 9491SOL    HW230481   1.922   2.408   6.784
 9492SOL     OW30482   2.079   2.372   7.298
 9492SOL    HW130483   2.139   2.333   7.232
 9492SOL    HW230484   2.038   2.445   7.248
 9493SOL     OW30485   3.254   2.776   7.239
 9493SOL    HW130486   3.274   2.871   7.238
 9493SOL    HW230487   3.248   2.756   7.143
 9494SOL     OW30488   2.658   2.438   5.969
 9494SOL    HW130489   2.672   2.365   5.906
 9494SOL    HW230490   2.588   2.490   5.925
 9495SOL     OW30491   3.500   2.482   6.785
 9495SOL    HW130492   3.475   2.419   6.854
 9495SOL    HW230493   3.584   2.444   6.754
 9496SOL     OW30494   2.121   3.400   7.299
 9496SOL    HW130495   2.105   3.469   7.365
 9496SOL    HW230496   2.120   3.320   7.354
 9497SOL     OW30497   2.541   2.341   6.857
 9497SOL    HW130498   2.499   2.260   6.823
 9497SOL    HW230499   2.545   2.398   6.779
 9498SOL     OW30500   2.792   3.554   7.053
 9498SOL    HW130501   2.766   3.533   6.962
 9498SOL    HW230502   2.789   3.651   7.054
 9499SOL     OW30503   2.306   2.338   5.794
 9499SOL    HW130504   2.373   2.407   5.787
 9499SOL    HW230505   2.225   2.387   5.775
 9500SOL     OW30506   1.968   2.987   7.056
 9500SOL    HW130507   1.981   2.934   7.138
 9500SOL    HW230508   1.998   2.927   6.986
 9501SOL     OW30509   3.177   2.890   6.818
 9501SOL    HW130510   3.203   2.837   6.740
 9501SOL    HW230511   3.104   2.943   6.783
 9502SOL     OW30512   3.168   2.721   5.880
 9502SOL    HW130513   3.085   2.684   5.912
 9502SOL    HW230514   3.155   2.720   5.783
 9503SOL     OW30515   3.615   3.608   6.717
 9503SOL    HW130516   3.689   3.632   6.658
 9503SOL    HW230517   3.608   3.512   6.700
 9504SOL     OW30518   3.101   3.588   6.698
 9504SOL    HW130519   3.186   3.620   6.662
 9504SOL    HW230520   3.120   3.494   6.714
 9505SOL     OW30521   1.965   3.120   6.610
 9505SOL    HW130522   1.945   3.136   6.705
 9505SOL    HW230523   1.885   3.074   6.581
 9506SOL     OW30524   2.553   3.500   7.326
 9506SOL    HW130525   2.518   3.590   7.314
 9506SOL    HW230526   2.644   3.506   7.293
 9507SOL     OW30527   3.539   1.995   6.080
 9507SOL    HW130528   3.615   1.984   6.022
 9507SOL    HW230529   3.541   1.913   6.134
 9508SOL     OW30530   3.218   3.440   6.065
 9508SOL    HW130531   3.280   3.460   5.991
 9508SOL    HW230532   3.184   3.529   6.086
 9509SOL     OW30533   2.009   3.656   7.410
 9509SOL    HW130534   1.959   3.587   7.459
 9509SOL    HW230535   2.050   3.704   7.484
 9510SOL     OW30536   3.109   2.784   6.253
 9510SOL    HW130537   3.188   2.730   6.272
 9510SOL    HW230538   3.148   2.859   6.204
 9511SOL     OW30539   2.661   3.126   7.002
 9511SOL    HW130540   2.641   3.175   7.085
 9511SOL    HW230541   2.575   3.132   6.958
 9512SOL     OW30542   2.535   3.483   5.736
 9512SOL    HW130543   2.552   3.493   5.640
 9512SOL    HW230544   2.478   3.403   5.735
 9513SOL     OW30545   3.491   3.589   6.978
 9513SOL    HW130546   3.532   3.599   6.890
 9513SOL    HW230547   3.478   3.681   7.006
 9514SOL     OW30548   3.701   2.027   6.562
 9514SOL    HW130549   3.724   1.944   6.517
 9514SOL    HW230550   3.616   2.052   6.520
 9515SOL     OW30551   2.101   2.173   6.305
 9515SOL    HW130552   2.005   2.184   6.292
 9515SOL    HW230553   2.110   2.169   6.402
 9516SOL     OW30554   3.039   3.508   5.610
 9516SOL    HW130555   3.048   3.411   5.620
 9516SOL    HW230556   2.984   3.515   5.529
 9517SOL     OW30557   2.681   2.860   6.966
 9517SOL    HW130558   2.738   2.849   6.889
 9517SOL    HW230559   2.685   2.956   6.984
 9518SOL     OW30560   2.767   2.769   5.866
 9518SOL    HW130561   2.837   2.806   5.808
 9518SOL    HW230562   2.808   2.688   5.900
 9519SOL     OW30563   3.415   3.475   5.613
 9519SOL    HW130564   3.320   3.486   5.609
 9519SOL    HW230565   3.441   3.484   5.519
 9520SOL     OW30566   2.200   3.136   7.073
 9520SOL    HW130567   2.186   3.209   7.012
 9520SOL    HW230568   2.120   3.082   7.062
 9521SOL     OW30569   3.464   3.167   6.850
 9521SOL    HW130570   3.542   3.158   6.907
 9521SOL    HW230571   3.412   3.236   6.896
 9522SOL     OW30572   2.912   2.986   6.320
 9522SOL    HW130573   2.846   2.921   6.350
 9522SOL    HW230574   2.977   2.928   6.276
 9523SOL     OW30575   2.887   2.087   6.577
 9523SOL    HW130576   2.875   2.044   6.489
 9523SOL    HW230577   2.889   2.008   6.635
 9524SOL     OW30578   2.483   3.341   6.094
 9524SOL    HW130579   2.531   3.297   6.021
 9524SOL    HW230580   2.403   3.373   6.050
 9525SOL     OW30581   3.573   2.232   6.962
 9525SOL    HW130582   3.639   2.303   6.957
 9525SOL    HW230583   3.618   2.161   6.912
 9526SOL     OW30584   2.110   3.245   5.859
 9526SOL    HW130585   2.013   3.241   5.846
 9526SOL    HW230586   2.116   3.269   5.954
 9527SOL     OW30587   1.991   2.865   7.287
 9527SOL    HW130588   1.920   2.857   7.354
 9527SOL    HW230589   2.071   2.837   7.336
 9528SOL     OW30590   2.529   2.047   7.073
 9528SOL    HW130591   2.616   2.019   7.037
 9528SOL    HW230592   2.555   2.083   7.159
 9529SOL     OW30593   1.959   2.229   5.626
 9529SOL    HW130594   1.873   2.206   5.589
 9529SOL    HW230595   1.994   2.288   5.556
 9530SOL     OW30596   3.309   2.722   6.974
 9530SOL    HW130597   3.261   2.784   6.915
 9530SOL    HW230598   3.401   2.746   6.955
 9531SOL     OW30599   1.904   2.033   5.881
 9531SOL    HW130600   1.905   2.117   5.833
 9531SOL    HW230601   1.987   1.993   5.851
 9532SOL     OW30602   3.064   3.227   5.692
 9532SOL    HW130603   2.977   3.183   5.692
 9532SOL    HW230604   3.091   3.220   5.785
 9533SOL     OW30605   2.474   2.685   7.019
 9533SOL    HW130606   2.532   2.763   7.014
 9533SOL    HW230607   2.541   2.615   7.026
 9534SOL     OW30608   3.370   3.641   6.550
 9534SOL    HW130609   3.412   3.676   6.471
 9534SOL    HW230610   3.446   3.627   6.609
 9535SOL     OW30611   2.591   2.395   7.272
 9535SOL    HW130612   2.629   2.457   7.337
 9535SOL    HW230613   2.611   2.307   7.308
 9536SOL     OW30614   3.319   3.043   7.217
 9536SOL    HW130615   3.316   3.047   7.315
 9536SOL    HW230616   3.412   3.062   7.198
 9537SOL     OW30617   2.241   3.598   7.147
 9537SOL    HW130618   2.154   3.638   7.134
 9537SOL    HW230619   2.218   3.509   7.179
 9538SOL     OW30620   3.561   2.746   6.825
 9538SOL    HW130621   3.542   2.655   6.796
 9538SOL    HW230622   3.522   2.801   6.755
 9539SOL     OW30623   3.060   2.184   6.062
 9539SOL    HW130624   3.128   2.115   6.056
 9539SOL    HW230625   3.096   2.241   6.134
 9540SOL     OW30626   2.467   2.606   6.246
 9540SOL    HW130627   2.509   2.692   6.233
 9540SOL    HW230628   2.407   2.601   6.170
 9541SOL     OW30629   3.628   2.240   7.223
 9541SOL    HW130630   3.596   2.247   7.131
 9541SOL    HW230631   3.555   2.192   7.265
 9542SOL     OW30632   3.601   2.805   7.091
 9542SOL    HW130633   3.602   2.901   7.091
 9542SOL    HW230634   3.606   2.784   6.996
 9543SOL     OW30635   2.752   3.218   5.627
 9543SOL    HW130636   2.694   3.236   5.702
 9543SOL    HW230637   2.751   3.302   5.577
 9544SOL     OW30638   2.506   3.661   6.487
 9544SOL    HW130639   2.474   3.753   6.475
 9544SOL    HW230640   2.596   3.674   6.519
 9545SOL     OW30641   2.732   2.794   6.422
 9545SOL    HW130642   2.790   2.726   6.462
 9545SOL    HW230643   2.708   2.848   6.497
 9546SOL     OW30644   2.952   2.862   5.684
 9546SOL    HW130645   2.921   2.912   5.607
 9546SOL    HW230646   3.017   2.802   5.644
 9547SOL     OW30647   3.721   3.424   6.419
 9547SOL    HW130648   3.633   3.426   6.381
 9547SOL    HW230649   3.714   3.355   6.486
 9548SOL     OW30650   2.100   3.177   7.449
 9548SOL    HW130651   2.023   3.122   7.429
 9548SOL    HW230652   2.093   3.187   7.545
 9549SOL     OW30653   1.940   3.108   6.243
 9549SOL    HW130654   1.959   3.063   6.326
 9549SOL    HW230655   2.015   3.082   6.188
 9550SOL     OW30656   2.532   3.264   7.201
 9550SOL    HW130657   2.460   3.211   7.238
 9550SOL    HW230658   2.523   3.348   7.251
 9551SOL     OW30659   3.687   2.029   6.824
 9551SOL    HW130660   3.693   1.933   6.828
 9551SOL    HW230661   3.691   2.043   6.726
 9552SOL     OW30662   2.287   2.295   6.123
 9552SOL    HW130663   2.339   2.230   6.074
 9552SOL    HW230664   2.249   2.242   6.195
 9553SOL     OW30665   3.580   3.352   6.669
 9553SOL    HW130666   3.498   3.317   6.630
 9553SOL    HW230667   3.591   3.292   6.744
 9554SOL     OW30668   2.184   2.398   6.871
 9554SOL    HW130669   2.261   2.363   6.919
 9554SOL    HW230670   2.201   2.367   6.780
 9555SOL     OW30671   2.672   3.467   6.265
 9555SOL    HW130672   2.686   3.533   6.195
 9555SOL    HW230673   2.582   3.436   6.244
 9556SOL     OW30674   3.297   2.107   6.684
 9556SOL    HW130675   3.324   2.025   6.727
 9556SOL    HW230676   3.248   2.153   6.755
 9557SOL     OW30677   2.877   1.851   6.745
 9557SOL    HW130678   2.823   1.774   6.722
 9557SOL    HW230679   2.968   1.814   6.738
 9558SOL     OW30680   2.635   3.203   5.904
 9558SOL    HW130681   2.605   3.111   5.898
 9558SOL    HW230682   2.709   3.193   5.965
 9559SOL     OW30683   2.452   3.435   6.851
 9559SOL    HW130684   2.453   3.521   6.898
 9559SOL    HW230685   2.548   3.420   6.845
 9560SOL     OW30686   3.189   1.886   5.762
 9560SOL    HW130687   3.194   1.834   5.681
 9560SOL    HW230688   3.101   1.857   5.796
 9561SOL     OW30689   3.153   2.325   6.266
 9561SOL    HW130690   3.097   2.405   6.270
 9561SOL    HW230691   3.138   2.286   6.354
 9562SOL     OW30692   3.465   2.067   6.446
 9562SOL    HW130693   3.388   2.081   6.504
 9562SOL    HW230694   3.467   2.149   6.393
 9563SOL     OW30695   1.899   2.952   5.887
 9563SOL    HW130696   1.994   2.943   5.870
 9563SOL    HW230697   1.869   2.861   5.874
 9564SOL     OW30698   2.739   3.507   5.920
 9564SOL    HW130699   2.668   3.490   5.855
 9564SOL    HW230700   2.715   3.592   5.962
 9565SOL     OW30701   2.096   2.489   7.574
 9565SOL    HW130702   2.002   2.483   7.599
 9565SOL    HW230703   2.097   2.473   7.479
 9566SOL     OW30704   2.090   2.142   8.451
 9566SOL    HW130705   2.111   2.119   8.543
 9566SOL    HW230706   2.002   2.101   8.441
 9567SOL     OW30707   1.859   2.263   8.067
 9567SOL    HW130708   1.784   2.290   8.124
 9567SOL    HW230709   1.826   2.177   8.035
 9568SOL     OW30710   2.433   3.153   8.644
 9568SOL    HW130711   2.345   3.153   8.604
 9568SOL    HW230712   2.442   3.245   8.674
 9569SOL     OW30713   3.411   3.389   8.169
 9569SOL    HW130714   3.375   3.362   8.256
 9569SOL    HW230715   3.336   3.379   8.108
 9570SOL     OW30716   2.991   2.543   8.155
 9570SOL    HW130717   3.024   2.632   8.131
 9570SOL    HW230718   2.958   2.558   8.245
 9571SOL     OW30719   3.637   2.475   7.686
 9571SOL    HW130720   3.615   2.467   7.591
 9571SOL    HW230721   3.585   2.403   7.724
 9572SOL     OW30722   2.623   3.030   8.496
 9572SOL    HW130723   2.553   3.071   8.550
 9572SOL    HW230724   2.645   3.105   8.437
 9573SOL     OW30725   2.743   2.606   9.247
 9573SOL    HW130726   2.717   2.671   9.314
 9573SOL    HW230727   2.772   2.662   9.172
 9574SOL     OW30728   2.550   2.894   8.111
 9574SOL    HW130729   2.614   2.863   8.178
 9574SOL    HW230730   2.484   2.940   8.164
 9575SOL     OW30731   2.550   3.018   9.250
 9575SOL    HW130732   2.593   3.101   9.278
 9575SOL    HW230733   2.463   3.048   9.218
 9576SOL     OW30734   2.183   3.289   8.514
 9576SOL    HW130735   2.104   3.261   8.465
 9576SOL    HW230736   2.232   3.344   8.450
 9577SOL     OW30737   3.334   3.366   8.827
 9577SOL    HW130738   3.386   3.449   8.837
 9577SOL    HW230739   3.263   3.378   8.893
 9578SOL     OW30740   2.300   2.273   8.951
 9578SOL    HW130741   2.381   2.219   8.956
 9578SOL    HW230742   2.229   2.207   8.947
 9579SOL     OW30743   3.486   2.317   8.190
 9579SOL    HW130744   3.418   2.348   8.129
 9579SOL    HW230745   3.465   2.367   8.270
 9580SOL     OW30746   2.103   3.547   7.942
 9580SOL    HW130747   2.110   3.633   7.989
 9580SOL    HW230748   2.138   3.570   7.854
 9581SOL     OW30749   2.980   3.209   9.113
 9581SOL    HW130750   3.031   3.209   9.194
 9581SOL    HW230751   2.938   3.120   9.117
 9582SOL     OW30752   2.111   3.279   7.972
 9582SOL    HW130753   2.122   3.377   7.967
 9582SOL    HW230754   2.037   3.272   8.034
 9583SOL     OW30755   2.118   2.949   8.350
 9583SOL    HW130756   2.165   2.907   8.423
 9583SOL    HW230757   2.069   3.021   8.397
 9584SOL     OW30758   2.462   3.660   8.859
 9584SOL    HW130759   2.391   3.632   8.919
 9584SOL    HW230760   2.485   3.749   8.893
 9585SOL     OW30761   2.435   2.850   7.560
 9585SOL    HW130762   2.487   2.899   7.493
 9585SOL    HW230763   2.477   2.884   7.642
 9586SOL     OW30764   3.472   1.972   8.944
 9586SOL    HW130765   3.463   2.052   8.891
 9586SOL    HW230766   3.481   2.010   9.033
 9587SOL     OW30767   1.969   2.514   8.010
 9587SOL    HW130768   1.936   2.424   7.992
 9587SOL    HW230769   1.973   2.512   8.106
 9588SOL     OW30770   3.711   3.601   7.789
 9588SOL    HW130771   3.783   3.584   7.854
 9588SOL    HW230772   3.728   3.694   7.767
 9589SOL     OW30773   1.894   3.466   7.568
 9589SOL    HW130774   1.882   3.375   7.600
 9589SOL    HW230775   1.876   3.517   7.649
 9590SOL     OW30776   3.546   2.766   8.100
 9590SOL    HW130777   3.623   2.731   8.053
 9590SOL    HW230778   3.513   2.831   8.035
 9591SOL     OW30779   3.503   2.974   7.904
 9591SOL    HW130780   3.590   2.973   7.862
 9591SOL    HW230781   3.513   3.047   7.968
 9592SOL     OW30782   1.991   2.606   9.026
 9592SOL    HW130783   2.084   2.628   9.042
 9592SOL    HW230784   1.948   2.683   9.067
 9593SOL     OW30785   2.450   3.282   8.198
 9593SOL    HW130786   2.407   3.194   8.207
 9593SOL    HW230787   2.440   3.296   8.101
 9594SOL     OW30788   3.154   3.091   8.870
 9594SOL    HW130789   3.183   3.017   8.814
 9594SOL    HW230790   3.208   3.076   8.950
 9595SOL     OW30791   2.694   1.863   7.942
 9595SOL    HW130792   2.730   1.953   7.939
 9595SOL    HW230793   2.600   1.879   7.962
 9596SOL     OW30794   2.038   2.832   8.697
 9596SOL    HW130795   2.126   2.792   8.698
 9596SOL    HW230796   1.980   2.758   8.677
 9597SOL     OW30797   3.401   2.823   7.630
 9597SOL    HW130798   3.320   2.782   7.664
 9597SOL    HW230799   3.439   2.860   7.711
 9598SOL     OW30800   3.035   3.666   9.066
 9598SOL    HW130801   3.041   3.732   8.995
 9598SOL    HW230802   3.061   3.585   9.021
 9599SOL     OW30803   2.193   2.094   9.225
 9599SOL    HW130804   2.249   2.166   9.255
 9599SOL    HW230805   2.108   2.116   9.267
 9600SOL     OW30806   3.334   3.288   8.410
 9600SOL    HW130807   3.272   3.307   8.483
 9600SOL    HW230808   3.304   3.199   8.381
 9601SOL     OW30809   3.522   3.595   8.051
 9601SOL    HW130810   3.511   3.557   7.963
 9601SOL    HW230811   3.492   3.522   8.108
 9602SOL     OW30812   2.446   2.576   7.711
 9602SOL    HW130813   2.448   2.663   7.668
 9602SOL    HW230814   2.371   2.584   7.772
 9603SOL     OW30815   3.138   2.191   8.358
 9603SOL    HW130816   3.048   2.161   8.383
 9603SOL    HW230817   3.192   2.154   8.430
 9604SOL     OW30818   3.433   3.506   7.755
 9604SOL    HW130819   3.526   3.531   7.762
 9604SOL    HW230820   3.427   3.497   7.658
 9605SOL     OW30821   2.658   2.495   8.896
 9605SOL    HW130822   2.643   2.458   8.986
 9605SOL    HW230823   2.613   2.428   8.841
 9606SOL     OW30824   3.254   2.341   9.123
 9606SOL    HW130825   3.260   2.398   9.202
 9606SOL    HW230826   3.317   2.269   9.144
 9607SOL     OW30827   2.827   2.747   9.028
 9607SOL    HW130828   2.865   2.665   8.989
 9607SOL    HW230829   2.781   2.785   8.950
 9608SOL     OW30830   2.832   2.263   8.672
 9608SOL    HW130831   2.742   2.278   8.704
 9608SOL    HW230832   2.818   2.218   8.588
 9609SOL     OW30833   2.896   2.542   7.860
 9609SOL    HW130834   2.912   2.564   7.953
 9609SOL    HW230835   2.814   2.489   7.865
 9610SOL     OW30836   1.965   3.691   9.018
 9610SOL    HW130837   1.977   3.672   9.113
 9610SOL    HW230838   1.870   3.692   9.008
 9611SOL     OW30839   2.750   2.248   7.655
 9611SOL    HW130840   2.794   2.300   7.585
 9611SOL    HW230841   2.766   2.158   7.623
 9612SOL     OW30842   3.575   2.438   9.290
 9612SOL    HW130843   3.537   2.516   9.244
 9612SOL    HW230844   3.608   2.387   9.215
 9613SOL     OW30845   3.225   3.005   8.008
 9613SOL    HW130846   3.307   2.997   7.955
 9613SOL    HW230847   3.174   3.067   7.954
 9614SOL     OW30848   2.418   2.063   8.346
 9614SOL    HW130849   2.429   2.069   8.444
 9614SOL    HW230850   2.404   2.155   8.320
 9615SOL     OW30851   2.851   3.304   7.942
 9615SOL    HW130852   2.808   3.364   7.878
 9615SOL    HW230853   2.851   3.357   8.023
 9616SOL     OW30854   2.200   3.672   8.303
 9616SOL    HW130855   2.249   3.587   8.312
 9616SOL    HW230856   2.270   3.736   8.321
 9617SOL     OW30857   3.682   2.906   8.325
 9617SOL    HW130858   3.629   2.892   8.245
 9617SOL    HW230859   3.617   2.895   8.396
 9618SOL     OW30860   3.088   3.418   8.946
 9618SOL    HW130861   3.059   3.357   9.016
 9618SOL    HW230862   3.045   3.379   8.869
 9619SOL     OW30863   2.170   2.804   7.704
 9619SOL    HW130864   2.239   2.839   7.647
 9619SOL    HW230865   2.147   2.720   7.660
 9620SOL     OW30866   3.334   2.620   8.169
 9620SOL    HW130867   3.336   2.585   8.259
 9620SOL    HW230868   3.417   2.670   8.164
 9621SOL     OW30869   2.315   3.132   9.169
 9621SOL    HW130870   2.273   3.141   9.080
 9621SOL    HW230871   2.237   3.142   9.226
 9622SOL     OW30872   2.951   3.634   7.688
 9622SOL    HW130873   2.883   3.583   7.734
 9622SOL    HW230874   2.966   3.582   7.607
 9623SOL     OW30875   2.033   2.151   8.948
 9623SOL    HW130876   1.954   2.193   8.983
 9623SOL    HW230877   2.039   2.072   9.003
 9624SOL     OW30878   3.490   3.226   7.544
 9624SOL    HW130879   3.458   3.313   7.516
 9624SOL    HW230880   3.427   3.164   7.501
 9625SOL     OW30881   2.322   3.597   7.764
 9625SOL    HW130882   2.367   3.646   7.836
 9625SOL    HW230883   2.395   3.565   7.710
 9626SOL     OW30884   3.255   1.991   7.900
 9626SOL    HW130885   3.244   1.945   7.815
 9626SOL    HW230886   3.351   1.998   7.907
 9627SOL     OW30887   2.103   3.660   8.673
 9627SOL    HW130888   2.160   3.594   8.716
 9627SOL    HW230889   2.095   3.625   8.583
 9628SOL     OW30890   2.817   3.564   8.331
 9628SOL    HW130891   2.902   3.517   8.337
 9628SOL    HW230892   2.771   3.513   8.262
 9629SOL     OW30893   2.230   2.555   7.909
 9629SOL    HW130894   2.251   2.460   7.924
 9629SOL    HW230895   2.134   2.555   7.928
 9630SOL     OW30896   3.400   2.124   9.173
 9630SOL    HW130897   3.403   2.125   9.272
 9630SOL    HW230898   3.339   2.051   9.158
 9631SOL     OW30899   2.492   1.992   7.540
 9631SOL    HW130900   2.567   1.935   7.559
 9631SOL    HW230901   2.444   1.940   7.471
 9632SOL     OW30902   2.632   2.117   9.177
 9632SOL    HW130903   2.710   2.058   9.186
 9632SOL    HW230904   2.584   2.101   9.260
 9633SOL     OW30905   2.741   3.397   8.643
 9633SOL    HW130906   2.735   3.378   8.548
 9633SOL    HW230907   2.803   3.329   8.674
 9634SOL     OW30908   3.202   2.455   8.870
 9634SOL    HW130909   3.238   2.423   8.955
 9634SOL    HW230910   3.250   2.538   8.856
 9635SOL     OW30911   2.662   3.272   8.368
 9635SOL    HW130912   2.749   3.261   8.326
 9635SOL    HW230913   2.600   3.270   8.293
 9636SOL     OW30914   2.805   2.392   8.364
 9636SOL    HW130915   2.780   2.383   8.269
 9636SOL    HW230916   2.834   2.302   8.383
 9637SOL     OW30917   2.417   1.911   7.953
 9637SOL    HW130918   2.361   1.937   8.026
 9637SOL    HW230919   2.410   1.988   7.893
 9638SOL     OW30920   3.308   3.034   7.478
 9638SOL    HW130921   3.336   2.957   7.532
 9638SOL    HW230922   3.221   3.056   7.515
 9639SOL     OW30923   2.149   1.906   7.662
 9639SOL    HW130924   2.178   1.984   7.611
 9639SOL    HW230925   2.233   1.860   7.673
 9640SOL     OW30926   2.797   2.115   7.945
 9640SOL    HW130927   2.776   2.165   7.865
 9640SOL    HW230928   2.893   2.131   7.952
 9641SOL     OW30929   2.950   2.536   8.917
 9641SOL    HW130930   2.898   2.454   8.916
 9641SOL    HW230931   3.042   2.505   8.910
 9642SOL     OW30932   3.086   3.446   8.243
 9642SOL    HW130933   3.087   3.499   8.161
 9642SOL    HW230934   3.168   3.474   8.286
 9643SOL     OW30935   2.325   3.041   8.186
 9643SOL    HW130936   2.248   3.009   8.237
 9643SOL    HW230937   2.301   3.013   8.095
 9644SOL     OW30938   3.124   3.672   8.050
 9644SOL    HW130939   3.173   3.734   7.992
 9644SOL    HW230940   3.091   3.732   8.118
 9645SOL     OW30941   2.925   2.392   7.472
 9645SOL    HW130942   2.874   2.473   7.456
 9645SOL    HW230943   2.997   2.420   7.531
 9646SOL     OW30944   1.902   2.427   8.840
 9646SOL    HW130945   1.997   2.414   8.824
 9646SOL    HW230946   1.905   2.502   8.902
 9647SOL     OW30947   2.435   2.075   8.614
 9647SOL    HW130948   2.481   2.011   8.670
 9647SOL    HW230949   2.345   2.073   8.651
 9648SOL     OW30950   2.740   2.328   8.117
 9648SOL    HW130951   2.699   2.373   8.042
 9648SOL    HW230952   2.756   2.239   8.082
 9649SOL     OW30953   2.893   1.926   8.218
 9649SOL    HW130954   2.839   1.909   8.139
 9649SOL    HW230955   2.872   1.849   8.274
 9650SOL     OW30956   3.278   3.042   8.331
 9650SOL    HW130957   3.236   2.959   8.359
 9650SOL    HW230958   3.270   3.036   8.234
 9651SOL     OW30959   3.347   2.444   8.419
 9651SOL    HW130960   3.290   2.369   8.441
 9651SOL    HW230961   3.406   2.451   8.496
 9652SOL     OW30962   3.704   2.683   7.846
 9652SOL    HW130963   3.759   2.626   7.903
 9652SOL    HW230964   3.686   2.622   7.772
 9653SOL     OW30965   2.354   3.284   7.580
 9653SOL    HW130966   2.274   3.264   7.632
 9653SOL    HW230967   2.336   3.242   7.496
 9654SOL     OW30968   3.542   3.155   8.107
 9654SOL    HW130969   3.639   3.162   8.108
 9654SOL    HW230970   3.510   3.242   8.135
 9655SOL     OW30971   3.266   2.460   7.514
 9655SOL    HW130972   3.218   2.428   7.593
 9655SOL    HW230973   3.355   2.429   7.531
 9656SOL     OW30974   2.385   2.095   7.766
 9656SOL    HW130975   2.431   2.067   7.684
 9656SOL    HW230976   2.351   2.182   7.736
 9657SOL     OW30977   3.594   3.093   9.021
 9657SOL    HW130978   3.684   3.056   9.023
 9657SOL    HW230979   3.614   3.186   9.041
 9658SOL     OW30980   2.935   3.224   8.780
 9658SOL    HW130981   2.857   3.191   8.827
 9658SOL    HW230982   3.008   3.175   8.825
 9659SOL     OW30983   3.468   3.465   9.085
 9659SOL    HW130984   3.471   3.506   8.996
 9659SOL    HW230985   3.551   3.415   9.086
 9660SOL     OW30986   2.982   3.083   8.540
 9660SOL    HW130987   2.926   3.121   8.609
 9660SOL    HW230988   2.950   3.126   8.460
 9661SOL     OW30989   3.465   2.961   8.532
 9661SOL    HW130990   3.472   3.025   8.605
 9661SOL    HW230991   3.412   3.012   8.469
 9662SOL     OW30992   2.778   1.958   8.846
 9662SOL    HW130993   2.809   1.935   8.757
 9662SOL    HW230994   2.856   2.004   8.882
 9663SOL     OW30995   2.856   2.974   9.190
 9663SOL    HW130996   2.766   3.008   9.204
 9663SOL    HW230997   2.842   2.900   9.128
 9664SOL     OW30998   2.573   2.926   7.789
 9664SOL    HW130999   2.559   2.908   7.883
 9664SOL    HW231000   2.646   2.865   7.767
 9665SOL     OW31001   2.268   2.671   8.706
 9665SOL    HW131002   2.342   2.671   8.770
 9665SOL    HW231003   2.231   2.582   8.717
 9666SOL     OW31004   3.144   2.249   8.704
 9666SOL    HW131005   3.163   2.325   8.762
 9666SOL    HW231006   3.053   2.265   8.676
 9667SOL     OW31007   1.933   3.433   8.778
 9667SOL    HW131008   1.933   3.528   8.759
 9667SOL    HW231009   2.028   3.412   8.779
 9668SOL     OW31010   2.228   2.956   7.949
 9668SOL    HW131011   2.243   3.027   7.886
 9668SOL    HW231012   2.214   2.879   7.891
 9669SOL     OW31013   2.397   2.401   8.296
 9669SOL    HW131014   2.424   2.460   8.222
 9669SOL    HW231015   2.461   2.426   8.365
 9670SOL     OW31016   3.086   3.196   7.838
 9670SOL    HW131017   3.130   3.273   7.877
 9670SOL    HW231018   2.994   3.211   7.867
 9671SOL     OW31019   3.166   3.334   8.620
 9671SOL    HW131020   3.227   3.330   8.697
 9671SOL    HW231021   3.096   3.272   8.645
 9672SOL     OW31022   3.438   2.466   7.911
 9672SOL    HW131023   3.386   2.518   7.975
 9672SOL    HW231024   3.474   2.535   7.853
 9673SOL     OW31025   2.202   3.378   8.762
 9673SOL    HW131026   2.196   3.340   8.671
 9673SOL    HW231027   2.297   3.399   8.766
 9674SOL     OW31028   2.298   2.594   9.072
 9674SOL    HW131029   2.354   2.639   9.006
 9674SOL    HW231030   2.333   2.503   9.068
 9675SOL     OW31031   3.486   2.633   9.136
 9675SOL    HW131032   3.397   2.672   9.137
 9675SOL    HW231033   3.526   2.683   9.061
 9676SOL     OW31034   2.854   1.967   9.201
 9676SOL    HW131035   2.917   2.040   9.192
 9676SOL    HW231036   2.904   1.895   9.158
 9677SOL     OW31037   2.363   1.870   9.208
 9677SOL    HW131038   2.321   1.813   9.141
 9677SOL    HW231039   2.302   1.946   9.209
 9678SOL     OW31040   2.413   2.764   8.481
 9678SOL    HW131041   2.472   2.839   8.492
 9678SOL    HW231042   2.385   2.744   8.572
 9679SOL     OW31043   3.221   2.720   8.465
 9679SOL    HW131044   3.136   2.685   8.435
 9679SOL    HW231045   3.272   2.639   8.477
 9680SOL     OW31046   3.087   2.384   7.713
 9680SOL    HW131047   3.091   2.310   7.776
 9680SOL    HW231048   3.027   2.445   7.760
 9681SOL     OW31049   2.165   2.070   8.708
 9681SOL    HW131050   2.111   2.097   8.785
 9681SOL    HW231051   2.143   1.975   8.701
 9682SOL     OW31052   1.902   3.167   8.728
 9682SOL    HW131053   1.919   3.112   8.807
 9682SOL    HW231054   1.905   3.258   8.762
 9683SOL     OW31055   2.578   2.502   8.487
 9683SOL    HW131056   2.662   2.472   8.448
 9683SOL    HW231057   2.570   2.594   8.459
 9684SOL     OW31058   3.623   2.808   9.297
 9684SOL    HW131059   3.583   2.742   9.238
 9684SOL    HW231060   3.554   2.814   9.365
 9685SOL     OW31061   2.140   1.903   8.046
 9685SOL    HW131062   2.128   1.999   8.066
 9685SOL    HW231063   2.159   1.869   8.135
 9686SOL     OW31064   3.460   2.234   7.792
 9686SOL    HW131065   3.490   2.165   7.853
 9686SOL    HW231066   3.450   2.312   7.850
 9687SOL     OW31067   2.921   2.621   8.419
 9687SOL    HW131068   2.900   2.640   8.513
 9687SOL    HW231069   2.890   2.528   8.411
 9688SOL     OW31070   2.838   3.434   9.151
 9688SOL    HW131071   2.830   3.485   9.067
 9688SOL    HW231072   2.868   3.347   9.119
 9689SOL     OW31073   3.714   3.355   9.050
 9689SOL    HW131074   3.740   3.383   8.961
 9689SOL    HW231075   3.793   3.379   9.102
 9690SOL     OW31076   2.205   2.763   9.247
 9690SOL    HW131077   2.284   2.797   9.291
 9690SOL    HW231078   2.239   2.689   9.193
 9691SOL     OW31079   3.363   2.111   7.572
 9691SOL    HW131080   3.295   2.052   7.608
 9691SOL    HW231081   3.402   2.151   7.653
 9692SOL     OW31082   3.137   2.702   7.470
 9692SOL    HW131083   3.183   2.617   7.484
 9692SOL    HW231084   3.173   2.727   7.383
 9693SOL     OW31085   2.921   3.226   8.294
 9693SOL    HW131086   2.936   3.150   8.234
 9693SOL    HW231087   2.991   3.290   8.271
 9694SOL     OW31088   2.147   2.670   8.430
 9694SOL    HW131089   2.242   2.694   8.426
 9694SOL    HW231090   2.153   2.578   8.464
 9695SOL     OW31091   2.180   2.399   8.447
 9695SOL    HW131092   2.157   2.305   8.439
 9695SOL    HW231093   2.254   2.407   8.384
 9696SOL     OW31094   3.014   2.230   9.137
 9696SOL    HW131095   2.969   2.282   9.207
 9696SOL    HW231096   3.102   2.272   9.137
 9697SOL     OW31097   3.022   2.064   8.925
 9697SOL    HW131098   3.024   2.127   9.000
 9697SOL    HW231099   3.070   2.113   8.856
 9698SOL     OW31100   1.868   3.190   7.649
 9698SOL    HW131101   1.779   3.204   7.607
 9698SOL    HW231102   1.861   3.096   7.676
 9699SOL     OW31103   1.952   3.646   8.393
 9699SOL    HW131104   1.928   3.568   8.339
 9699SOL    HW231105   2.043   3.664   8.360
 9700SOL     OW31106   2.347   3.455   8.374
 9700SOL    HW131107   2.413   3.526   8.391
 9700SOL    HW231108   2.398   3.394   8.318
 9701SOL     OW31109   2.833   2.636   8.681
 9701SOL    HW131110   2.890   2.606   8.754
 9701SOL    HW231111   2.747   2.605   8.711
 9702SOL     OW31112   1.901   2.387   8.550
 9702SOL    HW131113   1.987   2.376   8.507
 9702SOL    HW231114   1.926   2.389   8.643
 9703SOL     OW31115   2.080   2.374   9.161
 9703SOL    HW131116   2.132   2.331   9.092
 9703SOL    HW231117   2.034   2.444   9.112
 9704SOL     OW31118   3.248   2.772   9.102
 9704SOL    HW131119   3.263   2.868   9.105
 9704SOL    HW231120   3.248   2.754   9.006
 9705SOL     OW31121   2.652   2.416   7.852
 9705SOL    HW131122   2.680   2.360   7.776
 9705SOL    HW231123   2.586   2.474   7.811
 9706SOL     OW31124   3.499   2.486   8.653
 9706SOL    HW131125   3.476   2.418   8.718
 9706SOL    HW231126   3.584   2.452   8.619
 9707SOL     OW31127   2.114   3.402   9.170
 9707SOL    HW131128   2.096   3.471   9.236
 9707SOL    HW231129   2.118   3.321   9.226
 9708SOL     OW31130   2.541   2.340   8.710
 9708SOL    HW131131   2.492   2.263   8.677
 9708SOL    HW231132   2.541   2.401   8.634
 9709SOL     OW31133   2.790   3.560   8.920
 9709SOL    HW131134   2.783   3.531   8.828
 9709SOL    HW231135   2.784   3.657   8.912
 9710SOL     OW31136   2.308   2.330   7.656
 9710SOL    HW131137   2.372   2.402   7.653
 9710SOL    HW231138   2.225   2.378   7.640
 9711SOL     OW31139   1.970   2.988   8.917
 9711SOL    HW131140   1.981   2.933   8.998
 9711SOL    HW231141   1.996   2.926   8.846
 9712SOL     OW31142   3.183   2.895   8.680
 9712SOL    HW131143   3.200   2.842   8.600
 9712SOL    HW231144   3.117   2.958   8.646
 9713SOL     OW31145   3.164   2.722   7.741
 9713SOL    HW131146   3.083   2.692   7.783
 9713SOL    HW231147   3.143   2.721   7.646
 9714SOL     OW31148   3.616   3.609   8.579
 9714SOL    HW131149   3.691   3.630   8.520
 9714SOL    HW231150   3.604   3.513   8.560
 9715SOL     OW31151   3.105   3.591   8.565
 9715SOL    HW131152   3.193   3.611   8.530
 9715SOL    HW231153   3.112   3.495   8.582
 9716SOL     OW31154   1.956   3.117   8.477
 9716SOL    HW131155   1.937   3.138   8.572
 9716SOL    HW231156   1.870   3.083   8.449
 9717SOL     OW31157   2.556   3.501   9.185
 9717SOL    HW131158   2.518   3.587   9.163
 9717SOL    HW231159   2.647   3.508   9.153
 9718SOL     OW31160   3.541   2.005   7.936
 9718SOL    HW131161   3.618   1.994   7.878
 9718SOL    HW231162   3.544   1.926   7.992
 9719SOL     OW31163   3.229   3.438   7.936
 9719SOL    HW131164   3.290   3.454   7.861
 9719SOL    HW231165   3.188   3.525   7.950
 9720SOL     OW31166   2.011   3.646   9.282
 9720SOL    HW131167   1.966   3.579   9.339
 9720SOL    HW231168   2.056   3.699   9.351
 9721SOL     OW31169   3.113   2.775   8.111
 9721SOL    HW131170   3.196   2.726   8.130
 9721SOL    HW231171   3.147   2.856   8.069
 9722SOL     OW31172   2.673   3.124   8.876
 9722SOL    HW131173   2.639   3.172   8.954
 9722SOL    HW231174   2.601   3.142   8.813
 9723SOL     OW31175   2.526   3.483   7.610
 9723SOL    HW131176   2.543   3.490   7.514
 9723SOL    HW231177   2.469   3.403   7.610
 9724SOL     OW31178   3.481   3.586   8.835
 9724SOL    HW131179   3.530   3.599   8.752
 9724SOL    HW231180   3.473   3.677   8.869
 9725SOL     OW31181   3.701   2.028   8.426
 9725SOL    HW131182   3.722   1.940   8.388
 9725SOL    HW231183   3.616   2.051   8.384
 9726SOL     OW31184   2.104   2.161   8.146
 9726SOL    HW131185   2.020   2.206   8.129
 9726SOL    HW231186   2.112   2.166   8.242
 9727SOL     OW31187   3.046   3.493   7.475
 9727SOL    HW131188   3.054   3.398   7.494
 9727SOL    HW231189   2.986   3.495   7.398
 9728SOL     OW31190   2.686   2.863   8.827
 9728SOL    HW131191   2.733   2.868   8.742
 9728SOL    HW231192   2.684   2.957   8.854
 9729SOL     OW31193   2.770   2.765   7.723
 9729SOL    HW131194   2.842   2.808   7.672
 9729SOL    HW231195   2.815   2.688   7.761
 9730SOL     OW31196   3.418   3.487   7.482
 9730SOL    HW131197   3.322   3.495   7.476
 9730SOL    HW231198   3.444   3.491   7.387
 9731SOL     OW31199   2.193   3.144   8.932
 9731SOL    HW131200   2.183   3.220   8.872
 9731SOL    HW231201   2.109   3.095   8.922
 9732SOL     OW31202   3.467   3.170   8.718
 9732SOL    HW131203   3.514   3.144   8.798
 9732SOL    HW231204   3.408   3.241   8.752
 9733SOL     OW31205   2.904   2.974   8.169
 9733SOL    HW131206   2.828   2.927   8.204
 9733SOL    HW231207   2.962   2.902   8.139
 9734SOL     OW31208   2.892   2.090   8.436
 9734SOL    HW131209   2.886   2.046   8.349
 9734SOL    HW231210   2.889   2.013   8.496
 9735SOL     OW31211   2.460   3.334   7.936
 9735SOL    HW131212   2.517   3.299   7.865
 9735SOL    HW231213   2.404   3.396   7.888
 9736SOL     OW31214   3.570   2.235   8.825
 9736SOL    HW131215   3.635   2.308   8.820
 9736SOL    HW231216   3.615   2.165   8.774
 9737SOL     OW31217   2.116   3.228   7.713
 9737SOL    HW131218   2.019   3.222   7.702
 9737SOL    HW231219   2.123   3.250   7.808
 9738SOL     OW31220   1.983   2.866   9.149
 9738SOL    HW131221   1.912   2.855   9.217
 9738SOL    HW231222   2.063   2.838   9.198
 9739SOL     OW31223   2.531   2.046   8.934
 9739SOL    HW131224   2.619   2.014   8.904
 9739SOL    HW231225   2.553   2.079   9.023
 9740SOL     OW31226   1.957   2.220   7.491
 9740SOL    HW131227   1.869   2.208   7.456
 9740SOL    HW231228   1.992   2.289   7.432
 9741SOL     OW31229   3.317   2.717   8.837
 9741SOL    HW131230   3.270   2.780   8.778
 9741SOL    HW231231   3.409   2.745   8.824
 9742SOL     OW31232   1.902   2.033   7.744
 9742SOL    HW131233   1.894   2.121   7.705
 9742SOL    HW231234   1.987   2.004   7.708
 9743SOL     OW31235   3.069   3.217   7.558
 9743SOL    HW131236   2.990   3.162   7.565
 9743SOL    HW231237   3.097   3.221   7.652
 9744SOL     OW31238   2.475   2.681   8.876
 9744SOL    HW131239   2.533   2.759   8.875
 9744SOL    HW231240   2.544   2.612   8.882
 9745SOL     OW31241   3.365   3.622   8.413
 9745SOL    HW131242   3.401   3.665   8.335
 9745SOL    HW231243   3.444   3.611   8.468
 9746SOL     OW31244   2.589   2.395   9.129
 9746SOL    HW131245   2.625   2.455   9.197
 9746SOL    HW231246   2.607   2.306   9.165
 9747SOL     OW31247   3.323   3.040   9.075
 9747SOL    HW131248   3.318   3.051   9.172
 9747SOL    HW231249   3.417   3.060   9.057
 9748SOL     OW31250   2.235   3.596   9.013
 9748SOL    HW131251   2.148   3.637   9.000
 9748SOL    HW231252   2.210   3.511   9.052
 9749SOL     OW31253   3.567   2.751   8.696
 9749SOL    HW131254   3.535   2.664   8.666
 9749SOL    HW231255   3.530   2.812   8.629
 9750SOL     OW31256   3.072   2.193   7.920
 9750SOL    HW131257   3.137   2.121   7.915
 9750SOL    HW231258   3.109   2.246   7.993
 9751SOL     OW31259   2.445   2.603   8.106
 9751SOL    HW131260   2.494   2.686   8.097
 9751SOL    HW231261   2.379   2.609   8.035
 9752SOL     OW31262   3.628   2.239   9.085
 9752SOL    HW131263   3.596   2.249   8.993
 9752SOL    HW231264   3.553   2.192   9.125
 9753SOL     OW31265   3.598   2.803   8.958
 9753SOL    HW131266   3.596   2.900   8.960
 9753SOL    HW231267   3.606   2.784   8.862
 9754SOL     OW31268   2.718   3.224   7.474
 9754SOL    HW131269   2.698   3.242   7.567
 9754SOL    HW231270   2.746   3.309   7.438
 9755SOL     OW31271   2.504   3.673   8.366
 9755SOL    HW131272   2.492   3.770   8.354
 9755SOL    HW231273   2.600   3.663   8.369
 9756SOL     OW31274   2.732   2.794   8.299
 9756SOL    HW131275   2.795   2.728   8.332
 9756SOL    HW231276   2.731   2.859   8.371
 9757SOL     OW31277   2.954   2.874   7.552
 9757SOL    HW131278   2.921   2.918   7.472
 9757SOL    HW231279   3.016   2.809   7.514
 9758SOL     OW31280   3.727   3.421   8.282
 9758SOL    HW131281   3.633   3.415   8.262
 9758SOL    HW231282   3.738   3.354   8.351
 9759SOL     OW31283   2.100   3.180   9.319
 9759SOL    HW131284   2.026   3.120   9.301
 9759SOL    HW231285   2.090   3.195   9.415
 9760SOL     OW31286   1.959   3.091   8.100
 9760SOL    HW131287   2.005   3.075   8.183
 9760SOL    HW231288   2.030   3.086   8.034
 9761SOL     OW31289   2.533   3.262   9.063
 9761SOL    HW131290   2.459   3.209   9.096
 9761SOL    HW231291   2.523   3.346   9.111
 9762SOL     OW31292   3.683   2.034   8.688
 9762SOL    HW131293   3.698   1.939   8.693
 9762SOL    HW231294   3.689   2.048   8.591
 9763SOL     OW31295   2.284   2.297   7.973
 9763SOL    HW131296   2.346   2.237   7.929
 9763SOL    HW231297   2.253   2.247   8.050
 9764SOL     OW31298   3.578   3.348   8.532
 9764SOL    HW131299   3.496   3.321   8.487
 9764SOL    HW231300   3.574   3.289   8.609
 9765SOL     OW31301   2.180   2.399   8.735
 9765SOL    HW131302   2.237   2.356   8.802
 9765SOL    HW231303   2.209   2.359   8.651
 9766SOL     OW31304   2.684   3.457   8.120
 9766SOL    HW131305   2.672   3.488   8.029
 9766SOL    HW231306   2.600   3.412   8.138
 9767SOL     OW31307   3.298   2.098   8.546
 9767SOL    HW131308   3.335   2.024   8.595
 9767SOL    HW231309   3.248   2.146   8.616
 9768SOL     OW31310   2.876   1.852   8.604
 9768SOL    HW131311   2.824   1.776   8.575
 9768SOL    HW231312   2.967   1.816   8.598
 9769SOL     OW31313   2.648   3.205   7.761
 9769SOL    HW131314   2.615   3.114   7.756
 9769SOL    HW231315   2.718   3.197   7.827
 9770SOL     OW31316   2.463   3.424   8.719
 9770SOL    HW131317   2.466   3.509   8.767
 9770SOL    HW231318   2.556   3.415   8.695
 9771SOL     OW31319   3.178   1.894   7.636
 9771SOL    HW131320   3.190   1.836   7.560
 9771SOL    HW231321   3.088   1.867   7.665
 9772SOL     OW31322   3.175   2.341   8.129
 9772SOL    HW131323   3.110   2.414   8.131
 9772SOL    HW231324   3.156   2.294   8.212
 9773SOL     OW31325   3.464   2.068   8.312
 9773SOL    HW131326   3.386   2.075   8.369
 9773SOL    HW231327   3.459   2.149   8.259
 9774SOL     OW31328   1.903   2.938   7.752
 9774SOL    HW131329   1.998   2.927   7.739
 9774SOL    HW231330   1.875   2.845   7.759
 9775SOL     OW31331   2.732   3.506   7.785
 9775SOL    HW131332   2.655   3.497   7.725
 9775SOL    HW231333   2.717   3.591   7.832
 9776SOL     OW31334   2.096   2.500   9.441
 9776SOL    HW131335   2.002   2.496   9.465
 9776SOL    HW231336   2.097   2.479   9.346
 9777SOL     OW31337   2.107   2.128  10.284
 9777SOL    HW131338   2.117   2.113  10.381
 9777SOL    HW231339   2.018   2.090  10.270
 9778SOL     OW31340   1.863   2.266   9.931
 9778SOL    HW131341   1.785   2.289   9.984
 9778SOL    HW231342   1.835   2.183   9.891
 9779SOL     OW31343   2.426   3.162  10.461
 9779SOL    HW131344   2.332   3.145  10.449
 9779SOL    HW231345   2.427   3.245  10.511
 9780SOL     OW31346   3.417   3.392  10.026
 9780SOL    HW131347   3.381   3.358  10.110
 9780SOL    HW231348   3.343   3.383   9.964
 9781SOL     OW31349   2.981   2.550   9.996
 9781SOL    HW131350   3.022   2.638   9.986
 9781SOL    HW231351   2.930   2.562  10.077
 9782SOL     OW31352   3.634   2.470   9.548
 9782SOL    HW131353   3.613   2.461   9.453
 9782SOL    HW231354   3.585   2.396   9.587
 9783SOL     OW31355   2.617   3.018  10.345
 9783SOL    HW131356   2.543   3.063  10.391
 9783SOL    HW231357   2.649   3.092  10.289
 9784SOL     OW31358   2.748   2.622   0.023
 9784SOL    HW131359   2.726   2.697   0.078
 9784SOL    HW231360   2.782   2.666  11.044
 9785SOL     OW31361   2.554   2.892   9.972
 9785SOL    HW131362   2.615   2.868  10.044
 9785SOL    HW231363   2.483   2.940  10.019
 9786SOL     OW31364   2.170   3.299  10.385
 9786SOL    HW131365   2.100   3.252  10.337
 9786SOL    HW231366   2.223   3.341  10.315
 9787SOL     OW31367   3.336   3.362  10.668
 9787SOL    HW131368   3.391   3.443  10.674
 9787SOL    HW231369   3.266   3.379  10.734
 9788SOL     OW31370   2.315   2.250  10.794
 9788SOL    HW131371   2.386   2.184  10.793
 9788SOL    HW231372   2.236   2.199  10.813
 9789SOL     OW31373   3.481   2.306  10.051
 9789SOL    HW131374   3.414   2.345   9.993
 9789SOL    HW231375   3.477   2.366  10.127
 9790SOL     OW31376   2.083   3.581   9.790
 9790SOL    HW131377   2.115   3.659   9.839
 9790SOL    HW231378   2.142   3.583   9.713
 9791SOL     OW31379   2.111   3.292   9.849
 9791SOL    HW131380   2.106   3.389   9.855
 9791SOL    HW231381   2.038   3.264   9.905
 9792SOL     OW31382   2.129   2.947  10.197
 9792SOL    HW131383   2.136   2.871  10.257
 9792SOL    HW231384   2.072   3.008  10.248
 9793SOL     OW31385   2.467   3.657  10.737
 9793SOL    HW131386   2.390   3.639  10.793
 9793SOL    HW231387   2.483   3.752  10.752
 9794SOL     OW31388   2.425   2.857   9.424
 9794SOL    HW131389   2.475   2.909   9.357
 9794SOL    HW231390   2.469   2.886   9.506
 9795SOL     OW31391   3.440   1.977  10.786
 9795SOL    HW131392   3.449   2.066  10.750
 9795SOL    HW231393   3.448   1.990  10.881
 9796SOL     OW31394   1.977   2.512   9.871
 9796SOL    HW131395   1.945   2.421   9.885
 9796SOL    HW231396   1.972   2.550   9.961
 9797SOL     OW31397   3.711   3.603   9.653
 9797SOL    HW131398   3.782   3.585   9.718
 9797SOL    HW231399   3.727   3.697   9.634
 9798SOL     OW31400   1.911   3.450   9.432
 9798SOL    HW131401   1.896   3.355   9.450
 9798SOL    HW231402   1.879   3.492   9.514
 9799SOL     OW31403   3.545   2.774   9.911
 9799SOL    HW131404   3.615   2.731   9.860
 9799SOL    HW231405   3.517   2.844   9.849
 9800SOL     OW31406   3.507   2.992   9.748
 9800SOL    HW131407   3.599   2.986   9.717
 9800SOL    HW231408   3.516   3.056   9.822
 9801SOL     OW31409   1.984   2.596  10.905
 9801SOL    HW131410   2.075   2.612  10.934
 9801SOL    HW231411   1.944   2.683  10.918
 9802SOL     OW31412   2.458   3.275  10.067
 9802SOL    HW131413   2.417   3.186  10.071
 9802SOL    HW231414   2.450   3.293   9.971
 9803SOL     OW31415   3.159   3.110  10.748
 9803SOL    HW131416   3.180   3.037  10.688
 9803SOL    HW231417   3.213   3.088  10.826
 9804SOL     OW31418   2.704   1.858   9.821
 9804SOL    HW131419   2.728   1.952   9.820
 9804SOL    HW231420   2.608   1.862   9.834
 9805SOL     OW31421   2.070   2.836  10.607
 9805SOL    HW131422   2.155   2.792  10.587
 9805SOL    HW231423   2.007   2.783  10.557
 9806SOL     OW31424   3.412   2.811   9.481
 9806SOL    HW131425   3.331   2.768   9.516
 9806SOL    HW231426   3.446   2.854   9.561
 9807SOL     OW31427   3.081   3.685  10.905
 9807SOL    HW131428   3.056   3.747  10.835
 9807SOL    HW231429   3.078   3.600  10.857
 9808SOL     OW31430   2.193   2.098   0.014
 9808SOL    HW131431   2.259   2.161   0.045
 9808SOL    HW231432   2.113   2.154   0.012
 9809SOL     OW31433   3.336   3.278  10.267
 9809SOL    HW131434   3.272   3.300  10.337
 9809SOL    HW231435   3.306   3.189  10.239
 9810SOL     OW31436   3.522   3.600   9.901
 9810SOL    HW131437   3.505   3.557   9.816
 9810SOL    HW231438   3.494   3.530   9.963
 9811SOL     OW31439   2.450   2.577   9.577
 9811SOL    HW131440   2.453   2.665   9.537
 9811SOL    HW231441   2.378   2.585   9.642
 9812SOL     OW31442   3.141   2.230  10.250
 9812SOL    HW131443   3.053   2.189  10.257
 9812SOL    HW231444   3.195   2.175  10.309
 9813SOL     OW31445   3.439   3.506   9.620
 9813SOL    HW131446   3.532   3.530   9.622
 9813SOL    HW231447   3.427   3.496   9.523
 9814SOL     OW31448   2.675   2.481  10.781
 9814SOL    HW131449   2.648   2.451  10.870
 9814SOL    HW231450   2.629   2.418  10.722
 9815SOL     OW31451   2.836   2.739  10.895
 9815SOL    HW131452   2.877   2.666  10.845
 9815SOL    HW231453   2.786   2.787  10.826
 9816SOL     OW31454   2.850   2.261  10.557
 9816SOL    HW131455   2.761   2.277  10.592
 9816SOL    HW231456   2.832   2.217  10.474
 9817SOL     OW31457   2.897   2.545   9.715
 9817SOL    HW131458   2.915   2.562   9.810
 9817SOL    HW231459   2.810   2.499   9.720
 9818SOL     OW31460   1.963   2.669  10.109
 9818SOL    HW131461   2.036   2.678  10.172
 9818SOL    HW231462   1.917   2.754  10.120
 9819SOL     OW31463   1.973   3.706  10.867
 9819SOL    HW131464   1.967   3.651  10.947
 9819SOL    HW231465   1.882   3.709  10.837
 9820SOL     OW31466   2.748   2.249   9.512
 9820SOL    HW131467   2.789   2.302   9.442
 9820SOL    HW231468   2.770   2.160   9.483
 9821SOL     OW31469   3.225   3.009   9.880
 9821SOL    HW131470   3.299   2.999   9.818
 9821SOL    HW231471   3.168   3.070   9.830
 9822SOL     OW31472   2.423   2.049  10.192
 9822SOL    HW131473   2.412   2.066  10.287
 9822SOL    HW231474   2.406   2.137  10.154
 9823SOL     OW31475   2.851   3.309   9.779
 9823SOL    HW131476   2.803   3.370   9.720
 9823SOL    HW231477   2.861   3.361   9.860
 9824SOL     OW31478   2.206   3.669  10.159
 9824SOL    HW131479   2.250   3.585  10.185
 9824SOL    HW231480   2.274   3.735  10.181
 9825SOL     OW31481   3.678   2.906  10.161
 9825SOL    HW131482   3.616   2.888  10.089
 9825SOL    HW231483   3.620   2.907  10.239
 9826SOL     OW31484   3.097   3.430  10.797
 9826SOL    HW131485   3.076   3.368  10.868
 9826SOL    HW231486   3.036   3.398  10.728
 9827SOL     OW31487   2.166   2.815   9.560
 9827SOL    HW131488   2.245   2.837   9.508
 9827SOL    HW231489   2.140   2.729   9.524
 9828SOL     OW31490   3.338   2.627  10.035
 9828SOL    HW131491   3.352   2.590  10.124
 9828SOL    HW231492   3.422   2.674  10.017
 9829SOL     OW31493   2.332   3.144  11.040
 9829SOL    HW131494   2.300   3.150  10.947
 9829SOL    HW231495   2.287   3.064  11.070
 9830SOL     OW31496   2.954   3.643   9.552
 9830SOL    HW131497   2.886   3.588   9.595
 9830SOL    HW231498   2.973   3.592   9.471
 9831SOL     OW31499   2.040   2.144  10.784
 9831SOL    HW131500   1.974   2.212  10.805
 9831SOL    HW231501   2.013   2.071  10.841
 9832SOL     OW31502   3.484   3.226   9.406
 9832SOL    HW131503   3.451   3.311   9.372
 9832SOL    HW231504   3.419   3.161   9.371
 9833SOL     OW31505   2.317   3.605   9.626
 9833SOL    HW131506   2.367   3.653   9.694
 9833SOL    HW231507   2.387   3.567   9.570
 9834SOL     OW31508   3.252   1.979   9.748
 9834SOL    HW131509   3.244   1.933   9.663
 9834SOL    HW231510   3.348   1.988   9.758
 9835SOL     OW31511   2.092   3.653  10.545
 9835SOL    HW131512   2.160   3.598  10.585
 9835SOL    HW231513   2.083   3.616  10.456
 9836SOL     OW31514   2.823   3.575  10.187
 9836SOL    HW131515   2.901   3.520  10.206
 9836SOL    HW231516   2.777   3.520  10.121
 9837SOL     OW31517   2.240   2.556   9.768
 9837SOL    HW131518   2.270   2.465   9.788
 9837SOL    HW231519   2.145   2.550   9.792
 9838SOL     OW31520   2.492   1.996   9.404
 9838SOL    HW131521   2.563   1.939   9.435
 9838SOL    HW231522   2.445   1.938   9.340
 9839SOL     OW31523   2.638   2.115  11.024
 9839SOL    HW131524   2.711   2.085  11.081
 9839SOL    HW231525   2.574   2.147  11.089
 9840SOL     OW31526   2.754   3.408  10.503
 9840SOL    HW131527   2.741   3.367  10.415
 9840SOL    HW231528   2.823   3.352  10.542
 9841SOL     OW31529   3.208   2.452  10.731
 9841SOL    HW131530   3.262   2.422  10.804
 9841SOL    HW231531   3.246   2.541  10.714
 9842SOL     OW31532   2.681   3.265  10.254
 9842SOL    HW131533   2.767   3.258  10.207
 9842SOL    HW231534   2.617   3.267  10.180
 9843SOL     OW31535   2.808   2.386  10.220
 9843SOL    HW131536   2.776   2.374  10.128
 9843SOL    HW231537   2.829   2.295  10.244
 9844SOL     OW31538   2.427   1.913   9.812
 9844SOL    HW131539   2.350   1.922   9.871
 9844SOL    HW231540   2.412   1.990   9.752
 9845SOL     OW31541   3.306   3.038   9.335
 9845SOL    HW131542   3.334   2.960   9.387
 9845SOL    HW231543   3.217   3.056   9.369
 9846SOL     OW31544   2.144   1.903   9.501
 9846SOL    HW131545   2.203   1.977   9.485
 9846SOL    HW231546   2.205   1.838   9.539
 9847SOL     OW31547   2.793   2.115   9.807
 9847SOL    HW131548   2.770   2.162   9.726
 9847SOL    HW231549   2.889   2.132   9.811
 9848SOL     OW31550   2.962   2.542  10.756
 9848SOL    HW131551   2.906   2.463  10.763
 9848SOL    HW231552   3.053   2.506  10.755
 9849SOL     OW31553   3.087   3.444  10.112
 9849SOL    HW131554   3.096   3.496  10.031
 9849SOL    HW231555   3.160   3.476  10.166
 9850SOL     OW31556   2.330   3.033  10.045
 9850SOL    HW131557   2.257   2.999  10.102
 9850SOL    HW231558   2.297   3.004   9.957
 9851SOL     OW31559   3.124   3.677   9.908
 9851SOL    HW131560   3.171   3.750   9.864
 9851SOL    HW231561   3.074   3.724   9.977
 9852SOL     OW31562   2.925   2.390   9.333
 9852SOL    HW131563   2.879   2.475   9.318
 9852SOL    HW231564   2.991   2.411   9.401
 9853SOL     OW31565   1.936   2.415  10.701
 9853SOL    HW131566   2.030   2.409  10.677
 9853SOL    HW231567   1.937   2.492  10.761
 9854SOL     OW31568   2.425   2.085  10.468
 9854SOL    HW131569   2.465   2.013  10.519
 9854SOL    HW231570   2.334   2.083  10.503
 9855SOL     OW31571   2.733   2.331   9.978
 9855SOL    HW131572   2.682   2.378   9.910
 9855SOL    HW231573   2.745   2.244   9.938
 9856SOL     OW31574   2.922   1.933  10.081
 9856SOL    HW131575   2.875   1.926   9.997
 9856SOL    HW231576   2.886   1.855  10.130
 9857SOL     OW31577   3.277   3.030  10.194
 9857SOL    HW131578   3.213   2.961  10.214
 9857SOL    HW231579   3.277   3.030  10.097
 9858SOL     OW31580   3.357   2.467  10.274
 9858SOL    HW131581   3.298   2.391  10.285
 9858SOL    HW231582   3.412   2.465  10.356
 9859SOL     OW31583   3.702   2.682   9.706
 9859SOL    HW131584   3.759   2.627   9.763
 9859SOL    HW231585   3.683   2.619   9.633
 9860SOL     OW31586   2.355   3.289   9.430
 9860SOL    HW131587   2.274   3.273   9.482
 9860SOL    HW231588   2.342   3.234   9.352
 9861SOL     OW31589   3.541   3.152   9.967
 9861SOL    HW131590   3.639   3.156   9.978
 9861SOL    HW231591   3.511   3.241   9.991
 9862SOL     OW31592   3.265   2.456   9.376
 9862SOL    HW131593   3.219   2.429   9.458
 9862SOL    HW231594   3.355   2.423   9.392
 9863SOL     OW31595   2.377   2.095   9.625
 9863SOL    HW131596   2.423   2.066   9.544
 9863SOL    HW231597   2.346   2.183   9.597
 9864SOL     OW31598   3.618   3.097  10.871
 9864SOL    HW131599   3.711   3.072  10.888
 9864SOL    HW231600   3.619   3.192  10.896
 9865SOL     OW31601   2.913   3.253  10.681
 9865SOL    HW131602   2.836   3.200  10.709
 9865SOL    HW231603   2.986   3.189  10.692
 9866SOL     OW31604   2.979   3.105  10.418
 9866SOL    HW131605   2.893   3.098  10.461
 9866SOL    HW231606   2.956   3.143  10.331
 9867SOL     OW31607   3.487   2.957  10.380
 9867SOL    HW131608   3.497   3.019  10.455
 9867SOL    HW231609   3.420   3.005  10.328
 9868SOL     OW31610   2.770   1.980  10.683
 9868SOL    HW131611   2.805   1.948  10.598
 9868SOL    HW231612   2.852   2.010  10.728
 9869SOL     OW31613   2.566   2.917   9.652
 9869SOL    HW131614   2.556   2.895   9.745
 9869SOL    HW231615   2.645   2.864   9.627
 9870SOL     OW31616   2.298   2.676  10.584
 9870SOL    HW131617   2.365   2.675  10.656
 9870SOL    HW231618   2.261   2.586  10.592
 9871SOL     OW31619   3.130   2.232  10.589
 9871SOL    HW131620   3.154   2.315  10.634
 9871SOL    HW231621   3.045   2.254  10.548
 9872SOL     OW31622   1.937   3.426  10.641
 9872SOL    HW131623   1.930   3.516  10.606
 9872SOL    HW231624   2.034   3.415  10.650
 9873SOL     OW31625   2.235   2.956   9.807
 9873SOL    HW131626   2.247   3.024   9.740
 9873SOL    HW231627   2.213   2.878   9.754
 9874SOL     OW31628   2.396   2.401  10.150
 9874SOL    HW131629   2.422   2.468  10.084
 9874SOL    HW231630   2.460   2.415  10.221
 9875SOL     OW31631   3.086   3.191   9.706
 9875SOL    HW131632   3.128   3.270   9.745
 9875SOL    HW231633   2.993   3.206   9.730
 9876SOL     OW31634   3.157   3.323  10.469
 9876SOL    HW131635   3.217   3.317  10.546
 9876SOL    HW231636   3.096   3.248  10.482
 9877SOL     OW31637   3.441   2.478   9.786
 9877SOL    HW131638   3.395   2.540   9.844
 9877SOL    HW231639   3.475   2.536   9.717
 9878SOL     OW31640   2.204   3.370  10.635
 9878SOL    HW131641   2.188   3.339  10.544
 9878SOL    HW231642   2.300   3.384  10.636
 9879SOL     OW31643   2.310   2.574  10.936
 9879SOL    HW131644   2.373   2.619  10.875
 9879SOL    HW231645   2.326   2.481  10.915
 9880SOL     OW31646   3.474   2.623  10.988
 9880SOL    HW131647   3.401   2.684  10.991
 9880SOL    HW231648   3.541   2.675  10.942
 9881SOL     OW31649   2.420   2.753  10.352
 9881SOL    HW131650   2.469   2.837  10.357
 9881SOL    HW231651   2.386   2.741  10.443
 9882SOL     OW31652   3.186   2.704  10.358
 9882SOL    HW131653   3.115   2.679  10.297
 9882SOL    HW231654   3.253   2.638  10.340
 9883SOL     OW31655   3.082   2.386   9.577
 9883SOL    HW131656   3.087   2.314   9.643
 9883SOL    HW231657   3.018   2.446   9.619
 9884SOL     OW31658   2.151   2.064  10.547
 9884SOL    HW131659   2.106   2.095  10.628
 9884SOL    HW231660   2.131   1.968  10.549
 9885SOL     OW31661   1.921   3.145  10.593
 9885SOL    HW131662   1.946   3.097  10.674
 9885SOL    HW231663   1.910   3.237  10.624
 9886SOL     OW31664   2.570   2.506  10.348
 9886SOL    HW131665   2.652   2.500  10.297
 9886SOL    HW231666   2.533   2.594  10.324
 9887SOL     OW31667   2.183   1.930   9.919
 9887SOL    HW131668   2.146   2.017   9.945
 9887SOL    HW231669   2.181   1.882  10.005
 9888SOL     OW31670   3.455   2.240   9.658
 9888SOL    HW131671   3.487   2.168   9.715
 9888SOL    HW231672   3.445   2.314   9.721
 9889SOL     OW31673   2.903   2.629  10.268
 9889SOL    HW131674   2.894   2.644  10.364
 9889SOL    HW231675   2.882   2.533  10.261
 9890SOL     OW31676   2.852   3.416  10.968
 9890SOL    HW131677   2.840   3.483  10.897
 9890SOL    HW231678   2.812   3.338  10.927
 9891SOL     OW31679   3.713   3.358  10.901
 9891SOL    HW131680   3.730   3.385  10.810
 9891SOL    HW231681   3.798   3.375  10.944
 9892SOL     OW31682   2.246   2.791  11.065
 9892SOL    HW131683   2.315   2.795   0.032
 9892SOL    HW231684   2.266   2.704  11.023
 9893SOL     OW31685   3.365   2.114   9.434
 9893SOL    HW131686   3.288   2.064   9.464
 9893SOL    HW231687   3.398   2.157   9.516
 9894SOL     OW31688   3.135   2.698   9.329
 9894SOL    HW131689   3.185   2.616   9.342
 9894SOL    HW231690   3.168   2.725   9.241
 9895SOL     OW31691   2.926   3.224  10.161
 9895SOL    HW131692   2.933   3.150  10.097
 9895SOL    HW231693   2.995   3.286  10.133
 9896SOL     OW31694   2.151   2.683  10.318
 9896SOL    HW131695   2.248   2.694  10.318
 9896SOL    HW231696   2.143   2.587  10.330
 9897SOL     OW31697   2.183   2.386  10.307
 9897SOL    HW131698   2.158   2.294  10.288
 9897SOL    HW231699   2.254   2.401  10.240
 9898SOL     OW31700   3.015   2.063  10.771
 9898SOL    HW131701   3.044   2.118  10.845
 9898SOL    HW231702   3.053   2.109  10.694
 9899SOL     OW31703   1.862   3.179   9.498
 9899SOL    HW131704   1.769   3.189   9.465
 9899SOL    HW231705   1.861   3.089   9.537
 9900SOL     OW31706   1.954   3.651  10.246
 9900SOL    HW131707   1.924   3.577  10.189
 9900SOL    HW231708   2.046   3.664  10.214
 9901SOL     OW31709   2.350   3.453  10.249
 9901SOL    HW131710   2.422   3.511  10.281
 9901SOL    HW231711   2.396   3.391  10.190
 9902SOL     OW31712   2.840   2.657  10.539
 9902SOL    HW131713   2.902   2.619  10.605
 9902SOL    HW231714   2.757   2.617  10.567
 9903SOL     OW31715   1.894   2.370  10.420
 9903SOL    HW131716   1.975   2.377  10.368
 9903SOL    HW231717   1.928   2.359  10.509
 9904SOL     OW31718   2.655   2.428   9.700
 9904SOL    HW131719   2.674   2.368   9.626
 9904SOL    HW231720   2.583   2.483   9.665
 9905SOL     OW31721   3.515   2.479  10.499
 9905SOL    HW131722   3.503   2.413  10.568
 9905SOL    HW231723   3.599   2.449  10.459
 9906SOL     OW31724   2.105   3.409  11.030
 9906SOL    HW131725   2.049   3.437   0.005
 9906SOL    HW231726   2.150   3.332  11.065
 9907SOL     OW31727   2.560   2.343  10.578
 9907SOL    HW131728   2.515   2.263  10.546
 9907SOL    HW231729   2.550   2.405  10.503
 9908SOL     OW31730   2.805   3.561  10.742
 9908SOL    HW131731   2.779   3.523  10.657
 9908SOL    HW231732   2.778   3.654  10.735
 9909SOL     OW31733   2.300   2.332   9.507
 9909SOL    HW131734   2.369   2.401   9.516
 9909SOL    HW231735   2.220   2.388   9.499
 9910SOL     OW31736   2.007   3.005  10.799
 9910SOL    HW131737   2.005   2.947  10.878
 9910SOL    HW231738   2.032   2.942  10.728
 9911SOL     OW31739   3.166   2.911  10.543
 9911SOL    HW131740   3.180   2.840  10.478
 9911SOL    HW231741   3.104   2.970  10.497
 9912SOL     OW31742   3.165   2.727   9.596
 9912SOL    HW131743   3.084   2.696   9.639
 9912SOL    HW231744   3.143   2.725   9.501
 9913SOL     OW31745   3.622   3.613  10.438
 9913SOL    HW131746   3.690   3.635  10.372
 9913SOL    HW231747   3.613   3.516  10.425
 9914SOL     OW31748   3.104   3.588  10.439
 9914SOL    HW131749   3.194   3.610  10.412
 9914SOL    HW231750   3.111   3.491  10.451
 9915SOL     OW31751   1.967   3.110  10.335
 9915SOL    HW131752   1.950   3.125  10.430
 9915SOL    HW231753   1.883   3.073  10.306
 9916SOL     OW31754   3.545   2.004   9.798
 9916SOL    HW131755   3.623   1.989   9.742
 9916SOL    HW231756   3.540   1.921   9.849
 9917SOL     OW31757   3.227   3.439   9.805
 9917SOL    HW131758   3.287   3.452   9.730
 9917SOL    HW231759   3.185   3.526   9.814
 9918SOL     OW31760   3.114   2.784   9.989
 9918SOL    HW131761   3.196   2.732  10.004
 9918SOL    HW231762   3.149   2.858   9.936
 9919SOL     OW31763   2.672   3.121  10.745
 9919SOL    HW131764   2.646   3.155  10.832
 9919SOL    HW231765   2.595   3.144  10.691
 9920SOL     OW31766   2.522   3.488   9.467
 9920SOL    HW131767   2.543   3.494   9.372
 9920SOL    HW231768   2.466   3.407   9.466
 9921SOL     OW31769   3.487   3.577  10.679
 9921SOL    HW131770   3.537   3.594  10.597
 9921SOL    HW231771   3.478   3.666  10.716
 9922SOL     OW31772   3.700   2.028  10.276
 9922SOL    HW131773   3.724   1.939  10.244
 9922SOL    HW231774   3.613   2.045  10.233
 9923SOL     OW31775   2.114   2.177  10.005
 9923SOL    HW131776   2.030   2.224   9.991
 9923SOL    HW231777   2.125   2.180  10.101
 9924SOL     OW31778   3.041   3.496   9.342
 9924SOL    HW131779   3.051   3.400   9.355
 9924SOL    HW231780   2.985   3.502   9.262
 9925SOL     OW31781   2.685   2.851  10.703
 9925SOL    HW131782   2.725   2.836  10.616
 9925SOL    HW231783   2.695   2.947  10.716
 9926SOL     OW31784   2.772   2.771   9.583
 9926SOL    HW131785   2.846   2.812   9.535
 9926SOL    HW231786   2.811   2.693   9.623
 9927SOL     OW31787   3.418   3.489   9.343
 9927SOL    HW131788   3.322   3.503   9.340
 9927SOL    HW231789   3.441   3.490   9.247
 9928SOL     OW31790   2.230   3.153  10.800
 9928SOL    HW131791   2.204   3.225  10.740
 9928SOL    HW231792   2.150   3.098  10.800
 9929SOL     OW31793   3.481   3.161  10.577
 9929SOL    HW131794   3.527   3.133  10.657
 9929SOL    HW231795   3.422   3.230  10.612
 9930SOL     OW31796   2.908   2.985  10.026
 9930SOL    HW131797   2.832   2.935  10.061
 9930SOL    HW231798   2.973   2.913  10.013
 9931SOL     OW31799   2.894   2.101  10.299
 9931SOL    HW131800   2.893   2.054  10.213
 9931SOL    HW231801   2.892   2.025  10.361
 9932SOL     OW31802   2.479   3.347   9.804
 9932SOL    HW131803   2.527   3.308   9.730
 9932SOL    HW231804   2.401   3.384   9.762
 9933SOL     OW31805   3.569   2.249  10.701
 9933SOL    HW131806   3.637   2.318  10.700
 9933SOL    HW231807   3.607   2.184  10.637
 9934SOL     OW31808   2.106   3.247   9.583
 9934SOL    HW131809   2.010   3.227   9.576
 9934SOL    HW231810   2.115   3.264   9.679
 9935SOL     OW31811   1.990   2.866  11.020
 9935SOL    HW131812   1.932   2.853  11.096
 9935SOL    HW231813   2.078   2.840  11.056
 9936SOL     OW31814   2.528   2.058  10.777
 9936SOL    HW131815   2.615   2.042  10.734
 9936SOL    HW231816   2.556   2.081  10.868
 9937SOL     OW31817   1.958   2.196   9.330
 9937SOL    HW131818   1.862   2.204   9.322
 9937SOL    HW231819   1.989   2.272   9.278
 9938SOL     OW31820   3.303   2.708  10.716
 9938SOL    HW131821   3.247   2.774  10.674
 9938SOL    HW231822   3.392   2.736  10.687
 9939SOL     OW31823   1.905   2.028   9.606
 9939SOL    HW131824   1.902   2.118   9.571
 9939SOL    HW231825   1.989   1.995   9.568
 9940SOL     OW31826   3.063   3.219   9.428
 9940SOL    HW131827   2.983   3.166   9.434
 9940SOL    HW231828   3.092   3.220   9.521
 9941SOL     OW31829   2.494   2.677  10.766
 9941SOL    HW131830   2.555   2.752  10.749
 9941SOL    HW231831   2.558   2.604  10.773
 9942SOL     OW31832   3.376   3.621  10.300
 9942SOL    HW131833   3.408   3.660  10.219
 9942SOL    HW231834   3.455   3.617  10.356
 9943SOL     OW31835   2.586   2.422  11.034
 9943SOL    HW131836   2.627   2.492  11.088
 9943SOL    HW231837   2.637   2.344  11.056
 9944SOL     OW31838   2.234   3.586  10.873
 9944SOL    HW131839   2.160   3.647  10.856
 9944SOL    HW231840   2.194   3.521  10.933
 9945SOL     OW31841   3.551   2.747  10.579
 9945SOL    HW131842   3.542   2.655  10.550
 9945SOL    HW231843   3.525   2.798  10.500
 9946SOL     OW31844   3.060   2.190   9.777
 9946SOL    HW131845   3.125   2.118   9.768
 9946SOL    HW231846   3.096   2.240   9.854
 9947SOL     OW31847   2.457   2.604   9.967
 9947SOL    HW131848   2.489   2.694   9.951
 9947SOL    HW231849   2.376   2.600   9.914
 9948SOL     OW31850   3.634   2.168  10.950
 9948SOL    HW131851   3.602   2.192  10.861
 9948SOL    HW231852   3.555   2.182  11.004
 9949SOL     OW31853   3.618   2.809  10.832
 9949SOL    HW131854   3.609   2.906  10.839
 9949SOL    HW231855   3.607   2.792  10.737
 9950SOL     OW31856   2.707   3.227   9.342
 9950SOL    HW131857   2.686   3.245   9.435
 9950SOL    HW231858   2.739   3.311   9.308
 9951SOL     OW31859   2.525   3.668  10.263
 9951SOL    HW131860   2.505   3.759  10.234
 9951SOL    HW231861   2.610   3.649  10.221
 9952SOL     OW31862   2.739   2.821  10.166
 9952SOL    HW131863   2.790   2.745  10.198
 9952SOL    HW231864   2.719   2.870  10.248
 9953SOL     OW31865   2.960   2.876   9.416
 9953SOL    HW131866   2.921   2.922   9.339
 9953SOL    HW231867   3.012   2.807   9.371
 9954SOL     OW31868   3.715   3.418  10.163
 9954SOL    HW131869   3.636   3.418  10.107
 9954SOL    HW231870   3.688   3.362  10.238
 9955SOL     OW31871   1.946   3.118   9.990
 9955SOL    HW131872   1.933   3.060  10.066
 9955SOL    HW231873   2.031   3.086   9.955
 9956SOL     OW31874   2.547   3.283  10.936
 9956SOL    HW131875   2.478   3.229  10.978
 9956SOL    HW231876   2.497   3.360  10.906
 9957SOL     OW31877   3.664   2.061  10.539
 9957SOL    HW131878   3.693   1.970  10.554
 9957SOL    HW231879   3.674   2.068  10.442
 9958SOL     OW31880   2.296   2.297   9.834
 9958SOL    HW131881   2.339   2.225   9.788
 9958SOL    HW231882   2.244   2.253   9.904
 9959SOL     OW31883   3.584   3.349  10.404
 9959SOL    HW131884   3.499   3.319  10.366
 9959SOL    HW231885   3.588   3.293  10.483
 9960SOL     OW31886   2.206   2.408  10.592
 9960SOL    HW131887   2.262   2.350  10.648
 9960SOL    HW231888   2.214   2.368  10.504
 9961SOL     OW31889   2.687   3.456   9.988
 9961SOL    HW131890   2.676   3.493   9.899
 9961SOL    HW231891   2.606   3.403   9.998
 9962SOL     OW31892   3.294   2.095  10.430
 9962SOL    HW131893   3.332   2.021  10.478
 9962SOL    HW231894   3.239   2.140  10.498
 9963SOL     OW31895   2.882   1.876  10.460
 9963SOL    HW131896   2.824   1.808  10.425
 9963SOL    HW231897   2.969   1.829  10.463
 9964SOL     OW31898   2.648   3.203   9.620
 9964SOL    HW131899   2.616   3.111   9.616
 9964SOL    HW231900   2.723   3.196   9.681
 9965SOL     OW31901   2.474   3.417  10.611
 9965SOL    HW131902   2.479   3.505  10.653
 9965SOL    HW231903   2.552   3.420  10.553
 9966SOL     OW31904   3.173   1.903   9.474
 9966SOL    HW131905   3.186   1.834   9.408
 9966SOL    HW231906   3.083   1.883   9.506
 9967SOL     OW31907   3.145   2.328   9.992
 9967SOL    HW131908   3.091   2.408   9.988
 9967SOL    HW231909   3.137   2.299  10.085
 9968SOL     OW31910   3.454   2.068  10.182
 9968SOL    HW131911   3.391   2.089  10.252
 9968SOL    HW231912   3.456   2.149  10.128
 9969SOL     OW31913   1.912   2.938   9.619
 9969SOL    HW131914   2.007   2.928   9.603
 9969SOL    HW231915   1.887   2.845   9.636
 9970SOL     OW31916   2.735   3.511   9.637
 9970SOL    HW131917   2.657   3.499   9.578
 9970SOL    HW231918   2.714   3.594   9.685
 9971SOL     OW31919   2.108   4.376   0.148
 9971SOL    HW131920   2.022   4.344   0.176
 9971SOL    HW231921   2.120   4.336   0.061
 9972SOL     OW31922   2.087   4.003   0.997
 9972SOL    HW131923   2.114   3.979   1.088
 9972SOL    HW231924   2.002   3.955   0.989
 9973SOL     OW31925   1.869   4.130   0.637
 9973SOL    HW131926   1.788   4.148   0.688
 9973SOL    HW231927   1.845   4.049   0.592
 9974SOL     OW31928   2.431   5.015   1.199
 9974SOL    HW131929   2.342   5.012   1.161
 9974SOL    HW231930   2.439   5.108   1.224
 9975SOL     OW31931   3.415   5.238   0.714
 9975SOL    HW131932   3.372   5.214   0.799
 9975SOL    HW231933   3.342   5.233   0.649
 9976SOL     OW31934   2.991   4.415   0.715
 9976SOL    HW131935   3.028   4.500   0.684
 9976SOL    HW231936   2.957   4.440   0.803
 9977SOL     OW31937   3.637   4.313   0.222
 9977SOL    HW131938   3.635   4.251   0.149
 9977SOL    HW231939   3.580   4.268   0.286
 9978SOL     OW31940   2.591   4.883   1.020
 9978SOL    HW131941   2.532   4.928   1.084
 9978SOL    HW231942   2.631   4.960   0.977
 9979SOL     OW31943   2.735   4.513   1.804
 9979SOL    HW131944   2.718   4.581   1.871
 9979SOL    HW231945   2.774   4.562   1.730
 9980SOL     OW31946   2.554   4.728   0.643
 9980SOL    HW131947   2.617   4.715   0.716
 9980SOL    HW231948   2.481   4.778   0.686
 9981SOL     OW31949   2.552   4.880   1.807
 9981SOL    HW131950   2.600   4.963   1.826
 9981SOL    HW231951   2.466   4.912   1.774
 9982SOL     OW31952   2.173   5.154   1.082
 9982SOL    HW131953   2.102   5.108   1.034
 9982SOL    HW231954   2.223   5.201   1.012
 9983SOL     OW31955   3.334   5.227   1.405
 9983SOL    HW131956   3.328   5.289   1.330
 9983SOL    HW231957   3.243   5.230   1.441
 9984SOL     OW31958   2.285   4.135   1.510
 9984SOL    HW131959   2.367   4.083   1.517
 9984SOL    HW231960   2.215   4.068   1.508
 9985SOL     OW31961   3.471   4.184   0.739
 9985SOL    HW131962   3.383   4.208   0.706
 9985SOL    HW231963   3.475   4.237   0.819
 9986SOL     OW31964   2.082   5.443   0.502
 9986SOL    HW131965   2.127   5.523   0.539
 9986SOL    HW231966   2.124   5.436   0.415
 9987SOL     OW31967   2.989   5.072   1.661
 9987SOL    HW131968   3.026   5.075   1.750
 9987SOL    HW231969   2.945   4.985   1.664
 9988SOL     OW31970   2.112   5.148   0.524
 9988SOL    HW131971   2.106   5.244   0.542
 9988SOL    HW231972   2.044   5.112   0.584
 9989SOL     OW31973   2.127   4.814   0.904
 9989SOL    HW131974   2.132   4.736   0.961
 9989SOL    HW231975   2.073   4.875   0.958
 9990SOL     OW31976   2.474   5.507   1.419
 9990SOL    HW131977   2.393   5.488   1.468
 9990SOL    HW231978   2.495   5.599   1.447
 9991SOL     OW31979   2.441   4.707   0.154
 9991SOL    HW131980   2.484   4.770   0.094
 9991SOL    HW231981   2.478   4.736   0.240
 9992SOL     OW31982   3.483   3.829   1.497
 9992SOL    HW131983   3.475   3.907   1.442
 9992SOL    HW231984   3.486   3.868   1.586
 9993SOL     OW31985   1.978   4.391   0.561
 9993SOL    HW131986   1.952   4.298   0.577
 9993SOL    HW231987   1.973   4.430   0.651
 9994SOL     OW31988   3.713   5.458   0.356
 9994SOL    HW131989   3.777   5.437   0.426
 9994SOL    HW231990   3.732   5.552   0.341
 9995SOL     OW31991   1.938   5.327   0.130
 9995SOL    HW131992   1.920   5.236   0.158
 9995SOL    HW231993   1.900   5.378   0.204
 9996SOL     OW31994   3.563   4.635   0.633
 9996SOL    HW131995   3.651   4.603   0.606
 9996SOL    HW231996   3.540   4.693   0.559
 9997SOL     OW31997   3.497   4.839   0.437
 9997SOL    HW131998   3.571   4.868   0.382
 9997SOL    HW231999   3.506   4.900   0.514
 9998SOL     OW32000   1.988   4.473   1.581
 9998SOL    HW132001   2.084   4.488   1.579
 9998SOL    HW232002   1.957   4.550   1.630
 9999SOL     OW32003   2.449   5.128   0.744
 9999SOL    HW132004   2.420   5.034   0.751
 9999SOL    HW232005   2.440   5.144   0.648
10000SOL     OW32006   3.154   4.952   1.417
10000SOL    HW132007   3.179   4.880   1.357
10000SOL    HW232008   3.206   4.932   1.497
10001SOL     OW32009   2.699   3.722   0.487
10001SOL    HW132010   2.725   3.816   0.486
10001SOL    HW232011   2.603   3.728   0.503
10002SOL     OW32012   2.033   4.713   1.259
10002SOL    HW132013   2.123   4.678   1.257
10002SOL    HW232014   1.981   4.643   1.217
10003SOL     OW32015   3.406   4.687   0.198
10003SOL    HW132016   3.329   4.643   0.237
10003SOL    HW232017   3.443   4.734   0.274
10004SOL     OW32018   3.070   5.523   1.619
10004SOL    HW132019   3.057   5.590   1.550
10004SOL    HW232020   3.071   5.441   1.567
10005SOL     OW32021   2.194   3.963   1.795
10005SOL    HW132022   2.267   4.020   1.822
10005SOL    HW232023   2.120   3.999   1.846
10006SOL     OW32024   3.327   5.156   0.965
10006SOL    HW132025   3.266   5.170   1.040
10006SOL    HW232026   3.299   5.067   0.935
10007SOL     OW32027   3.519   5.466   0.602
10007SOL    HW132028   3.527   5.422   0.516
10007SOL    HW232029   3.492   5.391   0.658
10008SOL     OW32030   2.441   4.434   0.266
10008SOL    HW132031   2.455   4.519   0.220
10008SOL    HW232032   2.379   4.457   0.338
10009SOL     OW32033   3.134   4.051   0.909
10009SOL    HW132034   3.045   4.021   0.936
10009SOL    HW232035   3.190   4.015   0.981
10010SOL     OW32036   3.432   5.358   0.309
10010SOL    HW132037   3.522   5.393   0.306
10010SOL    HW232038   3.414   5.344   0.214
10011SOL     OW32039   2.667   4.357   1.451
10011SOL    HW132040   2.645   4.328   1.542
10011SOL    HW232041   2.615   4.292   1.399
10012SOL     OW32042   3.265   4.212   1.671
10012SOL    HW132043   3.263   4.268   1.751
10012SOL    HW232044   3.318   4.135   1.699
10013SOL     OW32045   2.843   4.615   1.574
10013SOL    HW132046   2.875   4.528   1.541
10013SOL    HW232047   2.783   4.642   1.501
10014SOL     OW32048   2.844   4.128   1.233
10014SOL    HW132049   2.764   4.135   1.288
10014SOL    HW232050   2.815   4.076   1.158
10015SOL     OW32051   2.899   4.412   0.412
10015SOL    HW132052   2.910   4.424   0.508
10015SOL    HW232053   2.814   4.363   0.408
10016SOL     OW32054   1.971   4.534   0.790
10016SOL    HW132055   2.043   4.531   0.856
10016SOL    HW232056   1.923   4.613   0.816
10017SOL     OW32057   1.967   5.588   1.570
10017SOL    HW132058   1.976   5.548   1.658
10017SOL    HW232059   1.876   5.566   1.546
10018SOL     OW32060   2.739   4.090   0.212
10018SOL    HW132061   2.790   4.135   0.142
10018SOL    HW232062   2.748   3.996   0.188
10019SOL     OW32063   3.590   4.306   1.839
10019SOL    HW132064   3.550   4.384   1.795
10019SOL    HW232065   3.603   4.248   1.762
10020SOL     OW32066   3.217   4.882   0.572
10020SOL    HW132067   3.301   4.870   0.525
10020SOL    HW232068   3.171   4.945   0.514
10021SOL     OW32069   2.413   3.925   0.902
10021SOL    HW132070   2.425   3.940   0.998
10021SOL    HW232071   2.412   4.014   0.866
10022SOL     OW32072   2.856   5.150   0.485
10022SOL    HW132073   2.814   5.220   0.432
10022SOL    HW232074   2.866   5.193   0.571
10023SOL     OW32075   2.200   5.534   0.866
10023SOL    HW132076   2.249   5.450   0.871
10023SOL    HW232077   2.267   5.599   0.890
10024SOL     OW32078   3.672   4.784   0.902
10024SOL    HW132079   3.623   4.779   0.818
10024SOL    HW232080   3.602   4.771   0.969
10025SOL     OW32081   3.087   5.274   1.493
10025SOL    HW132082   3.058   5.210   1.561
10025SOL    HW232083   3.033   5.243   1.418
10026SOL     OW32084   2.180   4.692   0.272
10026SOL    HW132085   2.263   4.688   0.223
10026SOL    HW232086   2.142   4.604   0.260
10027SOL     OW32087   3.336   4.481   0.710
10027SOL    HW132088   3.336   4.449   0.801
10027SOL    HW232089   3.421   4.528   0.703
10028SOL     OW32090   2.326   4.996   1.719
10028SOL    HW132091   2.282   5.000   1.631
10028SOL    HW232092   2.248   5.005   1.776
10029SOL     OW32093   2.947   5.473   0.204
10029SOL    HW132094   2.904   5.417   0.271
10029SOL    HW232095   2.985   5.408   0.143
10030SOL     OW32096   2.035   4.014   1.497
10030SOL    HW132097   1.965   4.065   1.540
10030SOL    HW232098   2.030   3.929   1.543
10031SOL     OW32099   3.487   5.058   0.088
10031SOL    HW132100   3.443   5.142   0.067
10031SOL    HW232101   3.427   4.992   0.048
10032SOL     OW32102   2.318   5.462   0.309
10032SOL    HW132103   2.364   5.506   0.382
10032SOL    HW232104   2.388   5.454   0.243
10033SOL     OW32105   3.261   3.857   0.445
10033SOL    HW132106   3.265   3.798   0.368
10033SOL    HW232107   3.355   3.867   0.467
10034SOL     OW32108   2.103   5.513   1.221
10034SOL    HW132109   2.166   5.447   1.254
10034SOL    HW232110   2.093   5.489   1.128
10035SOL     OW32111   2.824   5.423   0.886
10035SOL    HW132112   2.906   5.373   0.887
10035SOL    HW232113   2.772   5.374   0.820
10036SOL     OW32114   2.252   4.421   0.469
10036SOL    HW132115   2.266   4.324   0.472
10036SOL    HW232116   2.162   4.426   0.506
10037SOL     OW32117   3.404   3.987   1.725
10037SOL    HW132118   3.402   3.981   1.823
10037SOL    HW232119   3.336   3.922   1.701
10038SOL     OW32120   2.484   3.820   0.110
10038SOL    HW132121   2.577   3.802   0.129
10038SOL    HW232122   2.473   3.797   0.017
10039SOL     OW32123   2.738   5.264   1.194
10039SOL    HW132124   2.730   5.238   1.101
10039SOL    HW232125   2.804   5.201   1.229
10040SOL     OW32126   3.196   4.309   1.433
10040SOL    HW132127   3.228   4.277   1.520
10040SOL    HW232128   3.246   4.391   1.421
10041SOL     OW32129   2.677   5.127   0.932
10041SOL    HW132130   2.765   5.119   0.891
10041SOL    HW232131   2.619   5.140   0.856
10042SOL     OW32132   2.811   4.244   0.906
10042SOL    HW132133   2.789   4.221   0.813
10042SOL    HW232134   2.836   4.158   0.942
10043SOL     OW32135   2.435   3.773   0.501
10043SOL    HW132136   2.356   3.784   0.556
10043SOL    HW232137   2.426   3.850   0.442
10044SOL     OW32138   3.298   4.877   0.017
10044SOL    HW132139   3.321   4.820   0.092
10044SOL    HW232140   3.221   4.925   0.051
10045SOL     OW32141   2.139   3.794   0.221
10045SOL    HW132142   2.175   3.842   0.145
10045SOL    HW232143   2.210   3.730   0.239
10046SOL     OW32144   2.799   3.979   0.476
10046SOL    HW132145   2.775   4.028   0.395
10046SOL    HW232146   2.895   3.994   0.479
10047SOL     OW32147   2.947   4.394   1.468
10047SOL    HW132148   2.889   4.316   1.474
10047SOL    HW232149   3.037   4.357   1.468
10048SOL     OW32150   3.100   5.313   0.797
10048SOL    HW132151   3.099   5.376   0.722
10048SOL    HW232152   3.179   5.340   0.844
10049SOL     OW32153   2.343   4.871   0.735
10049SOL    HW132154   2.270   4.850   0.797
10049SOL    HW232155   2.298   4.853   0.649
10050SOL     OW32156   3.109   5.527   0.626
10050SOL    HW132157   3.163   5.589   0.573
10050SOL    HW232158   3.069   5.587   0.691
10051SOL     OW32159   2.890   4.239   0.032
10051SOL    HW132160   2.849   4.327   0.025
10051SOL    HW232161   2.975   4.258   0.073
10052SOL     OW32162   1.910   4.293   1.396
10052SOL    HW132163   2.005   4.283   1.378
10052SOL    HW232164   1.911   4.370   1.457
10053SOL     OW32165   2.433   3.957   1.170
10053SOL    HW132166   2.479   3.896   1.230
10053SOL    HW232167   2.340   3.945   1.199
10054SOL     OW32168   2.746   4.168   0.659
10054SOL    HW132169   2.701   4.229   0.598
10054SOL    HW232170   2.759   4.090   0.602
10055SOL     OW32171   2.874   3.802   0.775
10055SOL    HW132172   2.832   3.792   0.689
10055SOL    HW232173   2.852   3.718   0.819
10056SOL     OW32174   3.280   4.910   0.880
10056SOL    HW132175   3.215   4.839   0.887
10056SOL    HW232176   3.286   4.919   0.784
10057SOL     OW32177   3.341   4.306   0.979
10057SOL    HW132178   3.286   4.227   0.992
10057SOL    HW232179   3.395   4.309   1.060
10058SOL     OW32180   3.725   4.546   0.369
10058SOL    HW132181   3.774   4.494   0.435
10058SOL    HW232182   3.693   4.475   0.311
10059SOL     OW32183   2.360   5.173   0.137
10059SOL    HW132184   2.283   5.148   0.191
10059SOL    HW232185   2.352   5.113   0.060
10060SOL     OW32186   3.538   5.001   0.649
10060SOL    HW132187   3.634   5.012   0.655
10060SOL    HW232188   3.504   5.088   0.674
10061SOL     OW32189   3.271   4.328   0.081
10061SOL    HW132190   3.227   4.312   0.167
10061SOL    HW232191   3.305   4.240   0.062
10062SOL     OW32192   2.386   3.958   0.321
10062SOL    HW132193   2.415   3.903   0.245
10062SOL    HW232194   2.350   4.036   0.276
10063SOL     OW32195   3.601   4.960   1.581
10063SOL    HW132196   3.683   4.907   1.583
10063SOL    HW232197   3.637   5.049   1.596
10064SOL     OW32198   2.927   5.097   1.350
10064SOL    HW132199   2.849   5.055   1.391
10064SOL    HW232200   2.999   5.039   1.384
10065SOL     OW32201   2.983   4.961   1.096
10065SOL    HW132202   2.904   4.964   1.150
10065SOL    HW232203   2.950   4.985   1.008
10066SOL     OW32204   3.453   4.812   1.071
10066SOL    HW132205   3.460   4.879   1.141
10066SOL    HW232206   3.397   4.858   1.006
10067SOL     OW32207   2.785   3.827   1.402
10067SOL    HW132208   2.820   3.805   1.314
10067SOL    HW232209   2.862   3.870   1.445
10068SOL     OW32210   2.862   4.843   1.733
10068SOL    HW132211   2.771   4.861   1.759
10068SOL    HW232212   2.855   4.765   1.674
10069SOL     OW32213   2.586   4.796   0.383
10069SOL    HW132214   2.575   4.773   0.478
10069SOL    HW232215   2.658   4.735   0.354
10070SOL     OW32216   2.261   4.540   1.273
10070SOL    HW132217   2.339   4.539   1.333
10070SOL    HW232218   2.231   4.448   1.276
10071SOL     OW32219   3.141   4.111   1.257
10071SOL    HW132220   3.158   4.183   1.321
10071SOL    HW232221   3.048   4.124   1.234
10072SOL     OW32222   1.944   5.294   1.349
10072SOL    HW132223   1.940   5.380   1.306
10072SOL    HW232224   2.040   5.274   1.345
10073SOL     OW32225   2.221   4.822   0.506
10073SOL    HW132226   2.222   4.899   0.448
10073SOL    HW232227   2.204   4.751   0.442
10074SOL     OW32228   2.405   4.257   0.859
10074SOL    HW132229   2.438   4.319   0.791
10074SOL    HW232230   2.466   4.275   0.933
10075SOL     OW32231   3.097   5.061   0.399
10075SOL    HW132232   3.142   5.142   0.430
10075SOL    HW232233   3.004   5.080   0.424
10076SOL     OW32234   3.156   5.174   1.172
10076SOL    HW132235   3.192   5.128   1.250
10076SOL    HW232236   3.084   5.112   1.149
10077SOL     OW32237   3.444   4.346   0.464
10077SOL    HW132238   3.397   4.378   0.543
10077SOL    HW232239   3.469   4.429   0.423
10078SOL     OW32240   2.201   5.233   1.325
10078SOL    HW132241   2.183   5.197   1.235
10078SOL    HW232242   2.295   5.255   1.315
10079SOL     OW32243   2.298   4.452   1.621
10079SOL    HW132244   2.359   4.492   1.556
10079SOL    HW232245   2.337   4.364   1.630
10080SOL     OW32246   3.496   4.504   1.686
10080SOL    HW132247   3.405   4.539   1.682
10080SOL    HW232248   3.538   4.549   1.610
10081SOL     OW32249   2.892   3.789   1.800
10081SOL    HW132250   2.833   3.858   1.766
10081SOL    HW232251   2.944   3.764   1.723
10082SOL     OW32252   2.361   3.737   1.756
10082SOL    HW132253   2.323   3.680   1.687
10082SOL    HW232254   2.302   3.814   1.753
10083SOL     OW32255   2.465   4.621   1.049
10083SOL    HW132256   2.485   4.716   1.045
10083SOL    HW232257   2.403   4.615   1.123
10084SOL     OW32258   3.213   4.582   1.022
10084SOL    HW132259   3.125   4.549   0.997
10084SOL    HW232260   3.263   4.499   1.026
10085SOL     OW32261   3.102   4.248   0.288
10085SOL    HW132262   3.102   4.170   0.347
10085SOL    HW232263   3.036   4.304   0.332
10086SOL     OW32264   2.166   3.929   1.249
10086SOL    HW132265   2.121   3.958   1.330
10086SOL    HW232266   2.139   3.835   1.245
10087SOL     OW32267   1.879   5.034   1.289
10087SOL    HW132268   1.916   4.970   1.354
10087SOL    HW232269   1.906   5.120   1.324
10088SOL     OW32270   2.577   4.357   1.044
10088SOL    HW132271   2.662   4.339   1.001
10088SOL    HW232272   2.560   4.452   1.030
10089SOL     OW32273   3.626   4.675   1.845
10089SOL    HW132274   3.579   4.609   1.791
10089SOL    HW232275   3.562   4.688   1.917
10090SOL     OW32276   2.190   3.803   0.610
10090SOL    HW132277   2.159   3.890   0.643
10090SOL    HW232278   2.181   3.749   0.690
10091SOL     OW32279   3.474   4.107   0.345
10091SOL    HW132280   3.498   4.038   0.408
10091SOL    HW232281   3.452   4.183   0.403
10092SOL     OW32282   2.929   4.483   0.984
10092SOL    HW132283   2.896   4.493   1.076
10092SOL    HW232284   2.898   4.392   0.963
10093SOL     OW32285   2.840   5.288   1.702
10093SOL    HW132286   2.831   5.338   1.618
10093SOL    HW232287   2.866   5.200   1.670
10094SOL     OW32288   3.706   5.240   1.599
10094SOL    HW132289   3.754   5.255   1.516
10094SOL    HW232290   3.778   5.253   1.665
10095SOL     OW32291   2.201   4.624   1.798
10095SOL    HW132292   2.280   4.648   1.848
10095SOL    HW232293   2.233   4.551   1.742
10096SOL     OW32294   3.378   4.010   0.108
10096SOL    HW132295   3.321   3.940   0.142
10096SOL    HW232296   3.424   4.038   0.189
10097SOL     OW32297   3.146   4.564   0.024
10097SOL    HW132298   3.189   4.480   0.048
10097SOL    HW232299   3.121   4.548  11.034
10098SOL     OW32300   2.929   5.084   0.850
10098SOL    HW132301   2.937   5.005   0.793
10098SOL    HW232302   2.996   5.145   0.815
10099SOL     OW32303   2.157   4.537   0.989
10099SOL    HW132304   2.251   4.545   0.970
10099SOL    HW232305   2.151   4.445   1.020
10100SOL     OW32306   2.182   4.259   1.003
10100SOL    HW132307   2.157   4.165   0.995
10100SOL    HW232308   2.254   4.265   0.938
10101SOL     OW32309   3.021   4.105   1.679
10101SOL    HW132310   2.965   4.146   1.747
10101SOL    HW232311   3.106   4.151   1.693
10102SOL     OW32312   3.023   3.923   1.478
10102SOL    HW132313   3.020   3.986   1.554
10102SOL    HW232314   3.072   3.975   1.413
10103SOL     OW32315   1.861   5.072   0.219
10103SOL    HW132316   1.774   5.076   0.173
10103SOL    HW232317   1.871   4.975   0.230
10104SOL     OW32318   1.950   5.506   0.946
10104SOL    HW132319   1.919   5.430   0.893
10104SOL    HW232320   2.040   5.521   0.908
10105SOL     OW32321   2.341   5.298   0.922
10105SOL    HW132322   2.413   5.363   0.933
10105SOL    HW232323   2.379   5.236   0.857
10106SOL     OW32324   2.833   4.497   1.241
10106SOL    HW132325   2.892   4.464   1.312
10106SOL    HW232326   2.748   4.463   1.273
10107SOL     OW32327   1.900   4.252   1.115
10107SOL    HW132328   1.979   4.235   1.062
10107SOL    HW232329   1.936   4.260   1.204
10108SOL     OW32330   2.070   4.234   1.709
10108SOL    HW132331   2.132   4.197   1.645
10108SOL    HW232332   2.029   4.307   1.660
10109SOL     OW32333   3.257   4.639   1.653
10109SOL    HW132334   3.275   4.735   1.649
10109SOL    HW232335   3.245   4.617   1.559
10110SOL     OW32336   2.662   4.292   0.383
10110SOL    HW132337   2.675   4.218   0.321
10110SOL    HW232338   2.589   4.340   0.341
10111SOL     OW32339   3.494   4.343   1.211
10111SOL    HW132340   3.467   4.279   1.279
10111SOL    HW232341   3.578   4.305   1.179
10112SOL     OW32342   2.111   5.274   1.720
10112SOL    HW132343   2.098   5.330   1.797
10112SOL    HW232344   2.124   5.187   1.762
10113SOL     OW32345   2.539   4.204   1.269
10113SOL    HW132346   2.493   4.126   1.236
10113SOL    HW232347   2.546   4.261   1.189
10114SOL     OW32348   2.791   5.414   1.472
10114SOL    HW132349   2.770   5.379   1.384
10114SOL    HW232350   2.787   5.511   1.457
10115SOL     OW32351   2.311   4.190   0.197
10115SOL    HW132352   2.372   4.265   0.209
10115SOL    HW232353   2.226   4.235   0.209
10116SOL     OW32354   1.961   4.857   1.468
10116SOL    HW132355   1.983   4.807   1.550
10116SOL    HW232356   1.988   4.795   1.397
10117SOL     OW32357   3.182   4.770   1.224
10117SOL    HW132358   3.200   4.713   1.147
10117SOL    HW232359   3.109   4.825   1.189
10118SOL     OW32360   3.170   4.581   0.304
10118SOL    HW132361   3.088   4.550   0.344
10118SOL    HW232362   3.148   4.582   0.209
10119SOL     OW32363   3.619   5.478   1.132
10119SOL    HW132364   3.688   5.500   1.067
10119SOL    HW232365   3.609   5.381   1.117
10120SOL     OW32366   3.110   5.451   1.121
10120SOL    HW132367   3.196   5.475   1.082
10120SOL    HW232368   3.115   5.354   1.127
10121SOL     OW32369   1.958   4.978   1.039
10121SOL    HW132370   1.923   4.996   1.128
10121SOL    HW232371   1.886   4.927   0.999
10122SOL     OW32372   2.559   5.369   1.736
10122SOL    HW132373   2.518   5.452   1.708
10122SOL    HW232374   2.641   5.365   1.684
10123SOL     OW32375   2.766   3.829   0.142
10123SOL    HW132376   2.823   3.797   0.071
10123SOL    HW232377   2.801   3.774   0.215
10124SOL     OW32378   3.543   3.870   0.500
10124SOL    HW132379   3.623   3.860   0.446
10124SOL    HW232380   3.542   3.786   0.551
10125SOL     OW32381   3.225   5.289   0.478
10125SOL    HW132382   3.293   5.304   0.410
10125SOL    HW232383   3.191   5.378   0.492
10126SOL     OW32384   2.020   5.547   1.860
10126SOL    HW132385   1.988   5.466   1.905
10126SOL    HW232386   1.950   5.610   1.879
10127SOL     OW32387   3.112   4.640   0.632
10127SOL    HW132388   3.194   4.593   0.656
10127SOL    HW232389   3.148   4.724   0.598
10128SOL     OW32390   2.660   4.975   1.426
10128SOL    HW132391   2.640   5.031   1.504
10128SOL    HW232392   2.581   4.990   1.372
10129SOL     OW32393   2.549   5.352   0.174
10129SOL    HW132394   2.559   5.363   0.079
10129SOL    HW232395   2.482   5.279   0.177
10130SOL     OW32396   3.495   5.464   1.399
10130SOL    HW132397   3.541   5.477   1.314
10130SOL    HW232398   3.480   5.557   1.427
10131SOL     OW32399   3.705   3.891   0.975
10131SOL    HW132400   3.723   3.802   0.941
10131SOL    HW232401   3.621   3.915   0.931
10132SOL     OW32402   2.112   4.045   0.712
10132SOL    HW132403   2.027   4.088   0.690
10132SOL    HW232404   2.116   4.055   0.808
10133SOL     OW32405   3.081   5.309   0.035
10133SOL    HW132406   3.088   5.215   0.056
10133SOL    HW232407   3.011   5.310  11.069
10134SOL     OW32408   2.671   4.712   1.392
10134SOL    HW132409   2.700   4.713   1.300
10134SOL    HW232410   2.672   4.806   1.417
10135SOL     OW32411   2.765   4.631   0.274
10135SOL    HW132412   2.829   4.672   0.212
10135SOL    HW232413   2.814   4.555   0.309
10136SOL     OW32414   3.367   5.322   0.040
10136SOL    HW132415   3.272   5.341   0.045
10136SOL    HW232416   3.394   5.364  11.059
10137SOL     OW32417   2.190   5.004   1.489
10137SOL    HW132418   2.187   5.075   1.423
10137SOL    HW232419   2.109   4.954   1.473
10138SOL     OW32420   3.455   5.032   1.263
10138SOL    HW132421   3.528   5.000   1.318
10138SOL    HW232422   3.403   5.087   1.324
10139SOL     OW32423   2.913   4.838   0.734
10139SOL    HW132424   2.833   4.786   0.755
10139SOL    HW232425   2.970   4.772   0.692
10140SOL     OW32426   2.894   3.955   0.990
10140SOL    HW132427   2.877   3.912   0.904
10140SOL    HW232428   2.896   3.878   1.049
10141SOL     OW32429   2.466   5.200   0.486
10141SOL    HW132430   2.521   5.161   0.416
10141SOL    HW232431   2.392   5.239   0.437
10142SOL     OW32432   3.573   4.094   1.380
10142SOL    HW132433   3.633   4.171   1.378
10142SOL    HW232434   3.623   4.029   1.325
10143SOL     OW32435   2.123   5.096   0.262
10143SOL    HW132436   2.029   5.086   0.238
10143SOL    HW232437   2.116   5.116   0.358
10144SOL     OW32438   1.981   4.756   1.715
10144SOL    HW132439   1.911   4.734   1.779
10144SOL    HW232440   2.060   4.712   1.753
10145SOL     OW32441   2.537   3.910   1.475
10145SOL    HW132442   2.625   3.877   1.446
10145SOL    HW232443   2.560   3.943   1.564
10146SOL     OW32444   1.982   4.094   0.006
10146SOL    HW132445   1.905   4.040  11.083
10146SOL    HW232446   1.954   4.182  11.078
10147SOL     OW32447   3.312   4.582   1.385
10147SOL    HW132448   3.268   4.641   1.322
10147SOL    HW232449   3.405   4.607   1.374
10148SOL     OW32450   1.901   3.883   0.326
10148SOL    HW132451   1.903   3.966   0.278
10148SOL    HW232452   1.992   3.850   0.310
10149SOL     OW32453   3.067   5.037   0.127
10149SOL    HW132454   2.970   5.034   0.119
10149SOL    HW232455   3.080   5.046   0.223
10150SOL     OW32456   2.473   4.538   1.431
10150SOL    HW132457   2.529   4.617   1.428
10150SOL    HW232458   2.544   4.471   1.440
10151SOL     OW32459   3.371   5.501   0.959
10151SOL    HW132460   3.402   5.543   0.878
10151SOL    HW232461   3.452   5.494   1.011
10152SOL     OW32462   2.551   4.292   1.682
10152SOL    HW132463   2.602   4.340   1.750
10152SOL    HW232464   2.569   4.199   1.707
10153SOL     OW32465   3.329   4.909   1.628
10153SOL    HW132466   3.318   4.911   1.725
10153SOL    HW232467   3.425   4.920   1.619
10154SOL     OW32468   2.231   5.456   1.555
10154SOL    HW132469   2.150   5.507   1.538
10154SOL    HW232470   2.196   5.375   1.596
10155SOL     OW32471   3.559   4.607   1.231
10155SOL    HW132472   3.532   4.515   1.209
10155SOL    HW232473   3.511   4.660   1.165
10156SOL     OW32474   3.072   4.052   0.478
10156SOL    HW132475   3.137   3.980   0.466
10156SOL    HW232476   3.108   4.100   0.556
10157SOL     OW32477   2.465   4.454   0.675
10157SOL    HW132478   2.504   4.541   0.657
10157SOL    HW232479   2.395   4.448   0.607
10158SOL     OW32480   3.632   4.103   1.640
10158SOL    HW132481   3.601   4.108   1.547
10158SOL    HW232482   3.558   4.055   1.681
10159SOL     OW32483   3.599   4.661   1.496
10159SOL    HW132484   3.627   4.753   1.490
10159SOL    HW232485   3.609   4.631   1.403
10160SOL     OW32486   2.759   5.071   0.048
10160SOL    HW132487   2.682   5.076   0.106
10160SOL    HW232488   2.761   5.158   0.005
10161SOL     OW32489   2.503   5.529   0.922
10161SOL    HW132490   2.485   5.623   0.904
10161SOL    HW232491   2.599   5.526   0.931
10162SOL     OW32492   2.733   4.669   0.852
10162SOL    HW132493   2.784   4.600   0.896
10162SOL    HW232494   2.704   4.725   0.925
10163SOL     OW32495   2.912   4.717   0.073
10163SOL    HW132496   2.917   4.790   0.010
10163SOL    HW232497   2.996   4.670   0.058
10164SOL     OW32498   3.711   5.283   0.820
10164SOL    HW132499   3.617   5.273   0.803
10164SOL    HW232500   3.730   5.212   0.883
10165SOL     OW32501   2.100   5.045   1.858
10165SOL    HW132502   2.033   4.981   1.830
10165SOL    HW232503   2.085   5.047   1.955
10166SOL     OW32504   1.953   4.974   0.660
10166SOL    HW132505   1.959   4.923   0.743
10166SOL    HW232506   2.016   4.928   0.604
10167SOL     OW32507   2.543   5.126   1.618
10167SOL    HW132508   2.470   5.068   1.645
10167SOL    HW232509   2.522   5.208   1.667
10168SOL     OW32510   3.694   3.891   1.237
10168SOL    HW132511   3.701   3.795   1.246
10168SOL    HW232512   3.697   3.901   1.139
10169SOL     OW32513   2.292   4.150   0.511
10169SOL    HW132514   2.336   4.078   0.463
10169SOL    HW232515   2.253   4.106   0.588
10170SOL     OW32516   3.572   5.221   1.090
10170SOL    HW132517   3.490   5.198   1.043
10170SOL    HW232518   3.571   5.153   1.160
10171SOL     OW32519   2.178   4.270   1.283
10171SOL    HW132520   2.242   4.229   1.344
10171SOL    HW232521   2.203   4.234   1.196
10172SOL     OW32522   2.682   5.310   0.674
10172SOL    HW132523   2.681   5.328   0.578
10172SOL    HW232524   2.594   5.274   0.689
10173SOL     OW32525   3.295   3.962   1.094
10173SOL    HW132526   3.325   3.883   1.140
10173SOL    HW232527   3.243   4.010   1.163
10174SOL     OW32528   2.881   3.727   1.153
10174SOL    HW132529   2.823   3.655   1.127
10174SOL    HW232530   2.969   3.684   1.150
10175SOL     OW32531   2.633   5.059   0.324
10175SOL    HW132532   2.605   4.967   0.337
10175SOL    HW232533   2.720   5.057   0.367
10176SOL     OW32534   2.453   5.288   1.254
10176SOL    HW132535   2.462   5.369   1.308
10176SOL    HW232536   2.546   5.277   1.227
10177SOL     OW32537   3.184   3.750   0.172
10177SOL    HW132538   3.200   3.710   0.086
10177SOL    HW232539   3.097   3.712   0.195
10178SOL     OW32540   3.174   4.206   0.694
10178SOL    HW132541   3.109   4.278   0.700
10178SOL    HW232542   3.156   4.156   0.776
10179SOL     OW32543   3.463   3.930   0.860
10179SOL    HW132544   3.390   3.944   0.922
10179SOL    HW232545   3.454   4.006   0.800
10180SOL     OW32546   1.918   4.817   0.271
10180SOL    HW132547   2.014   4.806   0.274
10180SOL    HW232548   1.890   4.725   0.289
10181SOL     OW32549   2.750   5.363   0.366
10181SOL    HW132550   2.677   5.354   0.302
10181SOL    HW232551   2.734   5.454   0.401
10182SOL     OW32552   2.102   4.369   1.994
10182SOL    HW132553   2.013   4.344   2.024
10182SOL    HW232554   2.107   4.335   1.903
10183SOL     OW32555   2.100   3.997   2.860
10183SOL    HW132556   2.113   3.977   2.955
10183SOL    HW232557   2.010   3.959   2.847
10184SOL     OW32558   1.864   4.134   2.481
10184SOL    HW132559   1.784   4.155   2.534
10184SOL    HW232560   1.839   4.048   2.444
10185SOL     OW32561   2.430   5.010   3.050
10185SOL    HW132562   2.339   5.006   3.016
10185SOL    HW232563   2.435   5.101   3.084
10186SOL     OW32564   3.410   5.262   2.579
10186SOL    HW132565   3.378   5.231   2.667
10186SOL    HW232566   3.336   5.241   2.520
10187SOL     OW32567   3.001   4.409   2.577
10187SOL    HW132568   3.033   4.499   2.557
10187SOL    HW232569   2.958   4.422   2.663
10188SOL     OW32570   3.638   4.330   2.100
10188SOL    HW132571   3.618   4.324   2.004
10188SOL    HW232572   3.582   4.260   2.136
10189SOL     OW32573   2.622   4.887   2.901
10189SOL    HW132574   2.551   4.928   2.955
10189SOL    HW232575   2.650   4.964   2.848
10190SOL     OW32576   2.748   4.472   3.664
10190SOL    HW132577   2.719   4.535   3.732
10190SOL    HW232578   2.773   4.530   3.589
10191SOL     OW32579   2.550   4.754   2.520
10191SOL    HW132580   2.613   4.729   2.589
10191SOL    HW232581   2.481   4.802   2.570
10192SOL     OW32582   2.554   4.879   3.671
10192SOL    HW132583   2.599   4.963   3.694
10192SOL    HW232584   2.465   4.909   3.645
10193SOL     OW32585   2.175   5.156   2.939
10193SOL    HW132586   2.106   5.110   2.889
10193SOL    HW232587   2.226   5.204   2.871
10194SOL     OW32588   3.329   5.226   3.236
10194SOL    HW132589   3.384   5.306   3.245
10194SOL    HW232590   3.263   5.238   3.306
10195SOL     OW32591   2.299   4.116   3.393
10195SOL    HW132592   2.371   4.052   3.383
10195SOL    HW232593   2.220   4.065   3.369
10196SOL     OW32594   3.475   4.175   2.599
10196SOL    HW132595   3.399   4.198   2.544
10196SOL    HW232596   3.462   4.235   2.674
10197SOL     OW32597   2.083   5.433   2.338
10197SOL    HW132598   2.108   5.510   2.393
10197SOL    HW232599   2.146   5.439   2.265
10198SOL     OW32600   2.981   5.076   3.521
10198SOL    HW132601   3.028   5.077   3.606
10198SOL    HW232602   2.942   4.987   3.525
10199SOL     OW32603   2.112   5.149   2.390
10199SOL    HW132604   2.104   5.245   2.403
10199SOL    HW232605   2.047   5.114   2.452
10200SOL     OW32606   2.129   4.811   2.769
10200SOL    HW132607   2.131   4.736   2.830
10200SOL    HW232608   2.074   4.875   2.818
10201SOL     OW32609   2.457   5.525   3.261
10201SOL    HW132610   2.390   5.494   3.325
10201SOL    HW232611   2.483   5.611   3.300
10202SOL     OW32612   2.437   4.709   1.980
10202SOL    HW132613   2.487   4.754   1.908
10202SOL    HW232614   2.479   4.747   2.059
10203SOL     OW32615   3.472   3.837   3.357
10203SOL    HW132616   3.465   3.917   3.303
10203SOL    HW232617   3.479   3.875   3.446
10204SOL     OW32618   1.968   4.381   2.422
10204SOL    HW132619   1.940   4.289   2.440
10204SOL    HW232620   1.966   4.421   2.511
10205SOL     OW32621   3.707   5.467   2.204
10205SOL    HW132622   3.779   5.442   2.267
10205SOL    HW232623   3.726   5.561   2.191
10206SOL     OW32624   1.927   5.321   1.981
10206SOL    HW132625   1.923   5.226   1.998
10206SOL    HW232626   1.883   5.356   2.061
10207SOL     OW32627   3.558   4.628   2.494
10207SOL    HW132628   3.622   4.591   2.432
10207SOL    HW232629   3.517   4.697   2.441
10208SOL     OW32630   3.505   4.842   2.311
10208SOL    HW132631   3.594   4.840   2.273
10208SOL    HW232632   3.513   4.914   2.377
10209SOL     OW32633   1.989   4.470   3.443
10209SOL    HW132634   2.082   4.492   3.461
10209SOL    HW232635   1.944   4.549   3.474
10210SOL     OW32636   2.463   5.128   2.625
10210SOL    HW132637   2.417   5.042   2.638
10210SOL    HW232638   2.458   5.134   2.528
10211SOL     OW32639   3.146   4.948   3.278
10211SOL    HW132640   3.176   4.876   3.220
10211SOL    HW232641   3.201   4.935   3.358
10212SOL     OW32642   2.702   3.724   2.358
10212SOL    HW132643   2.733   3.816   2.349
10212SOL    HW232644   2.605   3.736   2.357
10213SOL     OW32645   2.040   4.693   3.122
10213SOL    HW132646   2.131   4.660   3.123
10213SOL    HW232647   1.991   4.622   3.078
10214SOL     OW32648   3.408   4.673   2.040
10214SOL    HW132649   3.324   4.635   2.071
10214SOL    HW232650   3.445   4.709   2.122
10215SOL     OW32651   3.035   5.528   3.475
10215SOL    HW132652   3.038   5.591   3.402
10215SOL    HW232653   3.063   5.445   3.432
10216SOL     OW32654   2.201   3.953   3.675
10216SOL    HW132655   2.250   4.034   3.658
10216SOL    HW232656   2.120   3.988   3.715
10217SOL     OW32657   3.330   5.153   2.819
10217SOL    HW132658   3.269   5.172   2.894
10217SOL    HW232659   3.302   5.064   2.793
10218SOL     OW32660   3.513   5.466   2.446
10218SOL    HW132661   3.494   5.428   2.359
10218SOL    HW232662   3.485   5.394   2.506
10219SOL     OW32663   2.449   4.437   2.120
10219SOL    HW132664   2.452   4.527   2.083
10219SOL    HW232665   2.380   4.442   2.188
10220SOL     OW32666   3.137   4.058   2.776
10220SOL    HW132667   3.048   4.025   2.797
10220SOL    HW232668   3.191   4.017   2.846
10221SOL     OW32669   3.443   5.370   2.184
10221SOL    HW132670   3.536   5.395   2.176
10221SOL    HW232671   3.420   5.349   2.092
10222SOL     OW32672   2.673   4.344   3.321
10222SOL    HW132673   2.648   4.308   3.409
10222SOL    HW232674   2.621   4.287   3.262
10223SOL     OW32675   3.256   4.204   3.531
10223SOL    HW132676   3.261   4.262   3.610
10223SOL    HW232677   3.313   4.129   3.557
10224SOL     OW32678   2.830   4.612   3.444
10224SOL    HW132679   2.869   4.530   3.407
10224SOL    HW232680   2.784   4.648   3.366
10225SOL     OW32681   2.835   4.127   3.091
10225SOL    HW132682   2.744   4.147   3.116
10225SOL    HW232683   2.825   4.077   3.010
10226SOL     OW32684   2.909   4.406   2.269
10226SOL    HW132685   2.916   4.424   2.364
10226SOL    HW232686   2.821   4.362   2.264
10227SOL     OW32687   1.971   4.530   2.652
10227SOL    HW132688   2.040   4.527   2.720
10227SOL    HW232689   1.922   4.611   2.678
10228SOL     OW32690   1.968   5.575   3.423
10228SOL    HW132691   1.979   5.552   3.518
10228SOL    HW232692   1.874   5.560   3.410
10229SOL     OW32693   2.734   4.080   2.077
10229SOL    HW132694   2.770   4.132   2.004
10229SOL    HW232695   2.706   4.001   2.029
10230SOL     OW32696   3.582   4.313   3.702
10230SOL    HW132697   3.541   4.388   3.653
10230SOL    HW232698   3.609   4.257   3.629
10231SOL     OW32699   3.221   4.876   2.417
10231SOL    HW132700   3.302   4.865   2.366
10231SOL    HW232701   3.172   4.940   2.363
10232SOL     OW32702   2.415   3.920   2.755
10232SOL    HW132703   2.419   3.932   2.852
10232SOL    HW232704   2.400   4.010   2.723
10233SOL     OW32705   2.844   5.160   2.345
10233SOL    HW132706   2.803   5.225   2.285
10233SOL    HW232707   2.864   5.212   2.424
10234SOL     OW32708   2.207   5.540   2.714
10234SOL    HW132709   2.251   5.454   2.727
10234SOL    HW232710   2.277   5.602   2.741
10235SOL     OW32711   3.674   4.776   2.752
10235SOL    HW132712   3.628   4.759   2.669
10235SOL    HW232713   3.604   4.769   2.819
10236SOL     OW32714   3.087   5.283   3.363
10236SOL    HW132715   3.058   5.217   3.428
10236SOL    HW232716   3.045   5.248   3.283
10237SOL     OW32717   2.164   4.683   2.110
10237SOL    HW132718   2.257   4.683   2.084
10237SOL    HW232719   2.130   4.603   2.066
10238SOL     OW32720   3.337   4.480   2.577
10238SOL    HW132721   3.337   4.447   2.668
10238SOL    HW232722   3.421   4.529   2.572
10239SOL     OW32723   2.320   4.999   3.590
10239SOL    HW132724   2.280   5.003   3.500
10239SOL    HW232725   2.238   5.003   3.644
10240SOL     OW32726   2.953   5.484   2.101
10240SOL    HW132727   2.884   5.440   2.153
10240SOL    HW232728   2.954   5.434   2.019
10241SOL     OW32729   2.038   4.012   3.352
10241SOL    HW132730   1.963   4.069   3.334
10241SOL    HW232731   1.997   3.932   3.388
10242SOL     OW32732   3.481   5.087   1.953
10242SOL    HW132733   3.426   5.166   1.938
10242SOL    HW232734   3.421   5.015   1.926
10243SOL     OW32735   2.315   5.489   2.163
10243SOL    HW132736   2.364   5.518   2.242
10243SOL    HW232737   2.381   5.430   2.120
10244SOL     OW32738   3.259   3.858   2.311
10244SOL    HW132739   3.246   3.809   2.228
10244SOL    HW232740   3.355   3.867   2.315
10245SOL     OW32741   2.112   5.519   3.089
10245SOL    HW132742   2.163   5.448   3.131
10245SOL    HW232743   2.098   5.485   3.000
10246SOL     OW32744   2.816   5.424   2.746
10246SOL    HW132745   2.901   5.378   2.752
10246SOL    HW232746   2.772   5.371   2.677
10247SOL     OW32747   2.235   4.418   2.322
10247SOL    HW132748   2.258   4.326   2.345
10247SOL    HW232749   2.139   4.417   2.337
10248SOL     OW32750   3.401   3.982   3.588
10248SOL    HW132751   3.401   3.983   3.687
10248SOL    HW232752   3.340   3.908   3.572
10249SOL     OW32753   2.485   3.845   1.968
10249SOL    HW132754   2.557   3.883   1.914
10249SOL    HW232755   2.439   3.792   1.900
10250SOL     OW32756   2.633   3.981   3.594
10250SOL    HW132757   2.712   3.924   3.602
10250SOL    HW232758   2.585   3.962   3.676
10251SOL     OW32759   2.748   5.267   3.057
10251SOL    HW132760   2.738   5.239   2.965
10251SOL    HW232761   2.811   5.203   3.093
10252SOL     OW32762   3.203   4.319   3.286
10252SOL    HW132763   3.237   4.285   3.372
10252SOL    HW232764   3.253   4.402   3.274
10253SOL     OW32765   2.681   5.129   2.797
10253SOL    HW132766   2.764   5.118   2.747
10253SOL    HW232767   2.614   5.134   2.727
10254SOL     OW32768   2.812   4.253   2.767
10254SOL    HW132769   2.784   4.241   2.673
10254SOL    HW232770   2.833   4.162   2.792
10255SOL     OW32771   2.430   3.775   2.363
10255SOL    HW132772   2.353   3.785   2.422
10255SOL    HW232773   2.418   3.853   2.305
10256SOL     OW32774   3.305   4.892   1.888
10256SOL    HW132775   3.329   4.813   1.941
10256SOL    HW232776   3.216   4.914   1.920
10257SOL     OW32777   2.148   3.758   2.048
10257SOL    HW132778   2.212   3.827   2.025
10257SOL    HW232779   2.207   3.694   2.093
10258SOL     OW32780   2.796   3.982   2.348
10258SOL    HW132781   2.775   4.022   2.262
10258SOL    HW232782   2.893   3.994   2.351
10259SOL     OW32783   2.953   4.400   3.335
10259SOL    HW132784   2.899   4.319   3.332
10259SOL    HW232785   3.044   4.369   3.320
10260SOL     OW32786   3.082   5.313   2.653
10260SOL    HW132787   3.095   5.370   2.575
10260SOL    HW232788   3.164   5.328   2.703
10261SOL     OW32789   2.322   4.901   2.602
10261SOL    HW132790   2.252   4.866   2.661
10261SOL    HW232791   2.290   4.870   2.515
10262SOL     OW32792   3.120   5.532   2.459
10262SOL    HW132793   3.170   5.602   2.411
10262SOL    HW232794   3.078   5.583   2.529
10263SOL     OW32795   2.929   4.290   1.865
10263SOL    HW132796   2.864   4.362   1.866
10263SOL    HW232797   2.977   4.300   1.948
10264SOL     OW32798   1.943   4.278   3.258
10264SOL    HW132799   2.038   4.269   3.240
10264SOL    HW232800   1.939   4.358   3.314
10265SOL     OW32801   2.427   3.956   3.024
10265SOL    HW132802   2.474   3.887   3.073
10265SOL    HW232803   2.336   3.945   3.058
10266SOL     OW32804   2.739   4.192   2.521
10266SOL    HW132805   2.687   4.238   2.454
10266SOL    HW232806   2.761   4.108   2.477
10267SOL     OW32807   2.890   3.793   2.630
10267SOL    HW132808   2.840   3.778   2.548
10267SOL    HW232809   2.866   3.715   2.684
10268SOL     OW32810   3.277   4.898   2.748
10268SOL    HW132811   3.237   4.814   2.774
10268SOL    HW232812   3.268   4.896   2.651
10269SOL     OW32813   3.340   4.306   2.836
10269SOL    HW132814   3.280   4.233   2.857
10269SOL    HW232815   3.403   4.306   2.910
10270SOL     OW32816   3.707   4.545   2.260
10270SOL    HW132817   3.764   4.487   2.314
10270SOL    HW232818   3.688   4.486   2.184
10271SOL     OW32819   2.342   5.156   1.977
10271SOL    HW132820   2.264   5.133   2.031
10271SOL    HW232821   2.350   5.080   1.919
10272SOL     OW32822   3.539   5.025   2.509
10272SOL    HW132823   3.636   5.023   2.519
10272SOL    HW232824   3.514   5.111   2.546
10273SOL     OW32825   3.257   4.314   1.931
10273SOL    HW132826   3.199   4.286   2.005
10273SOL    HW232827   3.332   4.255   1.943
10274SOL     OW32828   2.383   3.968   2.181
10274SOL    HW132829   2.428   3.924   2.105
10274SOL    HW232830   2.352   4.050   2.138
10275SOL     OW32831   3.591   4.959   3.437
10275SOL    HW132832   3.674   4.912   3.455
10275SOL    HW232833   3.618   5.051   3.453
10276SOL     OW32834   2.933   5.088   3.194
10276SOL    HW132835   2.853   5.055   3.240
10276SOL    HW232836   3.003   5.035   3.237
10277SOL     OW32837   3.469   5.329   3.498
10277SOL    HW132838   3.472   5.366   3.408
10277SOL    HW232839   3.551   5.276   3.501
10278SOL     OW32840   2.980   4.945   2.955
10278SOL    HW132841   2.923   4.981   3.024
10278SOL    HW232842   2.947   4.988   2.875
10279SOL     OW32843   3.468   4.825   2.946
10279SOL    HW132844   3.474   4.885   3.023
10279SOL    HW232845   3.411   4.877   2.887
10280SOL     OW32846   2.777   3.821   3.264
10280SOL    HW132847   2.807   3.799   3.173
10280SOL    HW232848   2.857   3.861   3.302
10281SOL     OW32849   2.864   4.839   3.606
10281SOL    HW132850   2.774   4.871   3.622
10281SOL    HW232851   2.850   4.764   3.545
10282SOL     OW32852   2.570   4.789   2.212
10282SOL    HW132853   2.565   4.766   2.307
10282SOL    HW232854   2.642   4.730   2.181
10283SOL     OW32855   2.282   4.533   3.134
10283SOL    HW132856   2.355   4.533   3.200
10283SOL    HW232857   2.245   4.443   3.144
10284SOL     OW32858   3.148   4.112   3.121
10284SOL    HW132859   3.168   4.188   3.179
10284SOL    HW232860   3.058   4.132   3.091
10285SOL     OW32861   1.935   5.298   3.200
10285SOL    HW132862   1.932   5.392   3.178
10285SOL    HW232863   2.030   5.279   3.197
10286SOL     OW32864   2.222   4.820   2.363
10286SOL    HW132865   2.255   4.878   2.295
10286SOL    HW232866   2.203   4.738   2.314
10287SOL     OW32867   2.400   4.268   2.708
10287SOL    HW132868   2.423   4.332   2.637
10287SOL    HW232869   2.463   4.290   2.777
10288SOL     OW32870   3.082   5.063   2.250
10288SOL    HW132871   3.124   5.140   2.291
10288SOL    HW232872   2.990   5.073   2.281
10289SOL     OW32873   3.160   5.191   3.029
10289SOL    HW132874   3.222   5.187   3.105
10289SOL    HW232875   3.089   5.131   3.057
10290SOL     OW32876   3.431   4.327   2.323
10290SOL    HW132877   3.382   4.376   2.391
10290SOL    HW232878   3.464   4.397   2.265
10291SOL     OW32879   2.198   5.243   3.185
10291SOL    HW132880   2.183   5.203   3.096
10291SOL    HW232881   2.292   5.264   3.178
10292SOL     OW32882   2.299   4.455   3.488
10292SOL    HW132883   2.356   4.496   3.421
10292SOL    HW232884   2.326   4.362   3.483
10293SOL     OW32885   3.485   4.499   3.546
10293SOL    HW132886   3.395   4.535   3.545
10293SOL    HW232887   3.527   4.550   3.473
10294SOL     OW32888   2.853   3.833   3.616
10294SOL    HW132889   2.919   3.902   3.605
10294SOL    HW232890   2.900   3.756   3.578
10295SOL     OW32891   2.366   3.736   3.619
10295SOL    HW132892   2.320   3.681   3.553
10295SOL    HW232893   2.303   3.811   3.628
10296SOL     OW32894   2.441   4.605   2.919
10296SOL    HW132895   2.473   4.697   2.925
10296SOL    HW232896   2.388   4.593   2.999
10297SOL     OW32897   3.225   4.583   2.877
10297SOL    HW132898   3.138   4.552   2.851
10297SOL    HW232899   3.272   4.500   2.889
10298SOL     OW32900   3.091   4.243   2.131
10298SOL    HW132901   3.087   4.162   2.185
10298SOL    HW232902   3.032   4.301   2.182
10299SOL     OW32903   2.167   3.923   3.122
10299SOL    HW132904   2.110   3.954   3.194
10299SOL    HW232905   2.134   3.831   3.111
10300SOL     OW32906   1.903   5.027   3.142
10300SOL    HW132907   1.926   4.965   3.214
10300SOL    HW232908   1.903   5.114   3.186
10301SOL     OW32909   2.578   4.370   2.905
10301SOL    HW132910   2.659   4.370   2.852
10301SOL    HW232911   2.545   4.462   2.898
10302SOL     OW32912   3.625   4.671   3.709
10302SOL    HW132913   3.575   4.605   3.658
10302SOL    HW232914   3.563   4.691   3.780
10303SOL     OW32915   2.178   3.803   2.463
10303SOL    HW132916   2.141   3.890   2.487
10303SOL    HW232917   2.178   3.758   2.550
10304SOL     OW32918   3.469   4.098   2.202
10304SOL    HW132919   3.498   4.029   2.264
10304SOL    HW232920   3.449   4.174   2.261
10305SOL     OW32921   2.922   4.484   2.844
10305SOL    HW132922   2.896   4.497   2.937
10305SOL    HW232923   2.894   4.392   2.829
10306SOL     OW32924   2.839   5.293   3.567
10306SOL    HW132925   2.831   5.344   3.484
10306SOL    HW232926   2.873   5.207   3.535
10307SOL     OW32927   3.711   5.211   3.475
10307SOL    HW132928   3.739   5.233   3.384
10307SOL    HW232929   3.784   5.248   3.528
10308SOL     OW32930   2.206   4.623   3.663
10308SOL    HW132931   2.289   4.640   3.711
10308SOL    HW232932   2.233   4.551   3.603
10309SOL     OW32933   3.368   3.976   1.985
10309SOL    HW132934   3.293   3.926   2.021
10309SOL    HW232935   3.408   4.018   2.064
10310SOL     OW32936   3.135   4.557   1.882
10310SOL    HW132937   3.174   4.468   1.897
10310SOL    HW232938   3.175   4.580   1.795
10311SOL     OW32939   2.927   5.087   2.702
10311SOL    HW132940   2.942   5.008   2.646
10311SOL    HW232941   2.997   5.150   2.676
10312SOL     OW32942   2.148   4.538   2.866
10312SOL    HW132943   2.244   4.549   2.853
10312SOL    HW232944   2.144   4.445   2.894
10313SOL     OW32945   2.185   4.257   2.865
10313SOL    HW132946   2.160   4.164   2.850
10313SOL    HW232947   2.253   4.270   2.796
10314SOL     OW32948   3.015   4.091   3.558
10314SOL    HW132949   2.968   4.145   3.625
10314SOL    HW232950   3.101   4.138   3.554
10315SOL     OW32951   3.025   3.921   3.347
10315SOL    HW132952   3.023   3.987   3.420
10315SOL    HW232953   3.071   3.970   3.277
10316SOL     OW32954   1.859   5.047   2.051
10316SOL    HW132955   1.767   5.055   2.018
10316SOL    HW232956   1.860   4.957   2.089
10317SOL     OW32957   1.959   5.507   2.808
10317SOL    HW132958   1.936   5.432   2.749
10317SOL    HW232959   2.048   5.532   2.774
10318SOL     OW32960   2.343   5.309   2.788
10318SOL    HW132961   2.411   5.377   2.805
10318SOL    HW232962   2.391   5.246   2.731
10319SOL     OW32963   2.834   4.494   3.103
10319SOL    HW132964   2.888   4.461   3.177
10319SOL    HW232965   2.746   4.464   3.129
10320SOL     OW32966   1.900   4.255   2.972
10320SOL    HW132967   1.986   4.236   2.930
10320SOL    HW232968   1.918   4.241   3.066
10321SOL     OW32969   2.082   4.238   3.581
10321SOL    HW132970   2.122   4.183   3.513
10321SOL    HW232971   2.028   4.299   3.529
10322SOL     OW32972   3.249   4.637   3.515
10322SOL    HW132973   3.273   4.732   3.516
10322SOL    HW232974   3.244   4.618   3.420
10323SOL     OW32975   2.667   4.303   2.225
10323SOL    HW132976   2.678   4.224   2.169
10323SOL    HW232977   2.591   4.348   2.185
10324SOL     OW32978   3.498   4.344   3.056
10324SOL    HW132979   3.476   4.285   3.129
10324SOL    HW232980   3.585   4.309   3.028
10325SOL     OW32981   2.115   5.260   3.578
10325SOL    HW132982   2.099   5.326   3.646
10325SOL    HW232983   2.121   5.178   3.630
10326SOL     OW32984   2.545   4.205   3.122
10326SOL    HW132985   2.493   4.130   3.089
10326SOL    HW232986   2.543   4.267   3.047
10327SOL     OW32987   2.788   5.417   3.334
10327SOL    HW132988   2.773   5.385   3.244
10327SOL    HW232989   2.781   5.514   3.323
10328SOL     OW32990   2.303   4.196   2.061
10328SOL    HW132991   2.372   4.264   2.059
10328SOL    HW232992   2.223   4.251   2.058
10329SOL     OW32993   1.972   4.848   3.330
10329SOL    HW132994   1.977   4.795   3.413
10329SOL    HW232995   1.991   4.782   3.261
10330SOL     OW32996   3.180   4.769   3.081
10330SOL    HW132997   3.199   4.709   3.007
10330SOL    HW232998   3.115   4.829   3.041
10331SOL     OW32999   3.162   4.594   2.149
10331SOL    HW133000   3.089   4.552   2.196
10331SOL    HW233001   3.141   4.577   2.055
10332SOL     OW33002   3.616   5.474   2.989
10332SOL    HW133003   3.691   5.498   2.930
10332SOL    HW233004   3.609   5.377   2.972
10333SOL     OW33005   3.105   5.452   2.971
10333SOL    HW133006   3.195   5.477   2.944
10333SOL    HW233007   3.115   5.356   2.985
10334SOL     OW33008   1.959   4.982   2.885
10334SOL    HW133009   1.931   5.001   2.977
10334SOL    HW233010   1.885   4.928   2.852
10335SOL     OW33011   2.556   5.362   3.601
10335SOL    HW133012   2.522   5.450   3.580
10335SOL    HW233013   2.648   5.366   3.570
10336SOL     OW33014   3.539   3.869   2.354
10336SOL    HW133015   3.619   3.858   2.300
10336SOL    HW233016   3.541   3.789   2.410
10337SOL     OW33017   3.217   5.295   2.343
10337SOL    HW133018   3.293   5.310   2.284
10337SOL    HW233019   3.183   5.385   2.359
10338SOL     OW33020   2.014   5.518   3.687
10338SOL    HW133021   1.972   5.446   3.739
10338SOL    HW233022   2.061   5.565   3.757
10339SOL     OW33023   3.115   4.645   2.525
10339SOL    HW133024   3.196   4.594   2.541
10339SOL    HW233025   3.150   4.724   2.479
10340SOL     OW33026   2.675   4.986   3.284
10340SOL    HW133027   2.645   5.036   3.363
10340SOL    HW233028   2.600   5.000   3.224
10341SOL     OW33029   2.518   5.347   2.019
10341SOL    HW133030   2.541   5.356   1.925
10341SOL    HW233031   2.458   5.269   2.014
10342SOL     OW33032   3.485   5.440   3.246
10342SOL    HW133033   3.530   5.456   3.161
10342SOL    HW233034   3.472   5.530   3.281
10343SOL     OW33035   3.707   3.893   2.834
10343SOL    HW133036   3.726   3.806   2.796
10343SOL    HW233037   3.619   3.915   2.796
10344SOL     OW33038   2.106   4.043   2.562
10344SOL    HW133039   2.022   4.089   2.546
10344SOL    HW233040   2.115   4.047   2.658
10345SOL     OW33041   3.047   5.340   1.881
10345SOL    HW133042   3.045   5.244   1.899
10345SOL    HW233043   2.984   5.349   1.806
10346SOL     OW33044   2.683   4.721   3.245
10346SOL    HW133045   2.718   4.728   3.156
10346SOL    HW233046   2.680   4.815   3.273
10347SOL     OW33047   2.770   4.641   2.127
10347SOL    HW133048   2.844   4.678   2.075
10347SOL    HW233049   2.809   4.562   2.167
10348SOL     OW33050   3.327   5.311   1.908
10348SOL    HW133051   3.230   5.307   1.914
10348SOL    HW233052   3.341   5.399   1.873
10349SOL     OW33053   2.206   4.997   3.349
10349SOL    HW133054   2.193   5.071   3.287
10349SOL    HW233055   2.124   4.946   3.339
10350SOL     OW33056   3.469   5.032   3.134
10350SOL    HW133057   3.513   5.006   3.216
10350SOL    HW233058   3.407   5.101   3.167
10351SOL     OW33059   2.917   4.834   2.591
10351SOL    HW133060   2.843   4.784   2.629
10351SOL    HW233061   2.977   4.763   2.562
10352SOL     OW33062   2.893   3.955   2.847
10352SOL    HW133063   2.884   3.911   2.760
10352SOL    HW233064   2.892   3.878   2.907
10353SOL     OW33065   2.483   5.206   2.364
10353SOL    HW133066   2.531   5.166   2.290
10353SOL    HW233067   2.398   5.231   2.325
10354SOL     OW33068   3.570   4.091   3.241
10354SOL    HW133069   3.631   4.167   3.234
10354SOL    HW233070   3.616   4.024   3.186
10355SOL     OW33071   2.106   5.107   2.130
10355SOL    HW133072   2.012   5.082   2.123
10355SOL    HW233073   2.116   5.120   2.226
10356SOL     OW33074   1.985   4.730   3.565
10356SOL    HW133075   1.913   4.712   3.629
10356SOL    HW233076   2.065   4.697   3.612
10357SOL     OW33077   2.533   3.906   3.351
10357SOL    HW133078   2.620   3.874   3.322
10357SOL    HW233079   2.556   3.946   3.438
10358SOL     OW33080   1.959   4.079   1.906
10358SOL    HW133081   1.867   4.069   1.879
10358SOL    HW233082   1.992   4.141   1.839
10359SOL     OW33083   3.312   4.583   3.247
10359SOL    HW133084   3.266   4.646   3.188
10359SOL    HW233085   3.405   4.609   3.235
10360SOL     OW33086   1.912   3.880   2.161
10360SOL    HW133087   1.914   3.968   2.121
10360SOL    HW233088   1.996   3.843   2.130
10361SOL     OW33089   3.063   5.076   1.971
10361SOL    HW133090   2.983   5.023   1.980
10361SOL    HW233091   3.091   5.083   2.065
10362SOL     OW33092   2.488   4.537   3.301
10362SOL    HW133093   2.544   4.617   3.299
10362SOL    HW233094   2.558   4.469   3.309
10363SOL     OW33095   3.374   5.489   2.828
10363SOL    HW133096   3.406   5.534   2.749
10363SOL    HW233097   3.455   5.483   2.882
10364SOL     OW33098   2.588   4.259   3.555
10364SOL    HW133099   2.628   4.323   3.616
10364SOL    HW233100   2.606   4.173   3.594
10365SOL     OW33101   3.325   4.907   3.483
10365SOL    HW133102   3.320   4.914   3.581
10365SOL    HW233103   3.419   4.924   3.467
10366SOL     OW33104   2.237   5.459   3.427
10366SOL    HW133105   2.152   5.502   3.407
10366SOL    HW233106   2.208   5.374   3.464
10367SOL     OW33107   3.561   4.609   3.099
10367SOL    HW133108   3.531   4.523   3.063
10367SOL    HW233109   3.526   4.674   3.035
10368SOL     OW33110   3.067   4.052   2.334
10368SOL    HW133111   3.133   3.980   2.325
10368SOL    HW233112   3.108   4.106   2.404
10369SOL     OW33113   2.445   4.472   2.532
10369SOL    HW133114   2.487   4.555   2.503
10369SOL    HW233115   2.370   4.464   2.471
10370SOL     OW33116   3.631   4.102   3.502
10370SOL    HW133117   3.604   4.107   3.408
10370SOL    HW233118   3.554   4.057   3.541
10371SOL     OW33119   3.590   4.666   3.361
10371SOL    HW133120   3.598   4.762   3.356
10371SOL    HW233121   3.602   4.639   3.268
10372SOL     OW33122   2.714   5.084   1.895
10372SOL    HW133123   2.684   5.099   1.986
10372SOL    HW233124   2.739   5.173   1.864
10373SOL     OW33125   2.501   5.534   2.771
10373SOL    HW133126   2.492   5.630   2.757
10373SOL    HW233127   2.595   5.522   2.791
10374SOL     OW33128   2.736   4.669   2.711
10374SOL    HW133129   2.789   4.598   2.751
10374SOL    HW233130   2.716   4.726   2.787
10375SOL     OW33131   2.952   4.733   1.955
10375SOL    HW133132   2.928   4.779   1.873
10375SOL    HW233133   3.012   4.664   1.921
10376SOL     OW33134   3.728   5.288   2.703
10376SOL    HW133135   3.642   5.290   2.659
10376SOL    HW233136   3.717   5.220   2.770
10377SOL     OW33137   2.098   5.039   3.730
10377SOL    HW133138   2.022   4.982   3.715
10377SOL    HW233139   2.095   5.051   3.826
10378SOL     OW33140   1.959   4.959   2.526
10378SOL    HW133141   1.964   4.906   2.607
10378SOL    HW233142   2.033   4.923   2.476
10379SOL     OW33143   2.536   5.122   3.474
10379SOL    HW133144   2.462   5.070   3.509
10379SOL    HW233145   2.526   5.207   3.523
10380SOL     OW33146   3.685   3.892   3.093
10380SOL    HW133147   3.686   3.796   3.101
10380SOL    HW233148   3.697   3.902   2.996
10381SOL     OW33149   2.292   4.165   2.392
10381SOL    HW133150   2.340   4.098   2.340
10381SOL    HW233151   2.248   4.114   2.461
10382SOL     OW33152   3.589   5.213   2.947
10382SOL    HW133153   3.504   5.191   2.907
10382SOL    HW233154   3.592   5.150   3.020
10383SOL     OW33155   2.207   4.256   3.149
10383SOL    HW133156   2.274   4.210   3.202
10383SOL    HW233157   2.220   4.222   3.059
10384SOL     OW33158   2.693   5.307   2.536
10384SOL    HW133159   2.687   5.339   2.445
10384SOL    HW233160   2.607   5.264   2.549
10385SOL     OW33161   3.295   3.962   2.959
10385SOL    HW133162   3.334   3.888   3.007
10385SOL    HW233163   3.249   4.011   3.030
10386SOL     OW33164   2.877   3.726   3.014
10386SOL    HW133165   2.823   3.650   2.990
10386SOL    HW233166   2.968   3.689   3.011
10387SOL     OW33167   2.640   5.062   2.176
10387SOL    HW133168   2.612   4.968   2.176
10387SOL    HW233169   2.713   5.061   2.240
10388SOL     OW33170   2.462   5.282   3.130
10388SOL    HW133171   2.465   5.369   3.174
10388SOL    HW233172   2.556   5.273   3.107
10389SOL     OW33173   3.178   3.763   2.053
10389SOL    HW133174   3.183   3.715   1.970
10389SOL    HW233175   3.089   3.733   2.084
10390SOL     OW33176   3.182   4.202   2.552
10390SOL    HW133177   3.118   4.275   2.554
10390SOL    HW233178   3.163   4.157   2.637
10391SOL     OW33179   3.463   3.933   2.727
10391SOL    HW133180   3.385   3.943   2.783
10391SOL    HW233181   3.462   4.015   2.674
10392SOL     OW33182   1.912   4.800   2.173
10392SOL    HW133183   2.007   4.790   2.152
10392SOL    HW233184   1.890   4.707   2.196
10393SOL     OW33185   2.733   5.368   2.192
10393SOL    HW133186   2.654   5.356   2.138
10393SOL    HW233187   2.716   5.450   2.243
10394SOL     OW33188   2.102   4.360   3.859
10394SOL    HW133189   2.011   4.341   3.886
10394SOL    HW233190   2.105   4.336   3.765
10395SOL     OW33191   2.085   4.006   4.729
10395SOL    HW133192   2.110   3.977   4.819
10395SOL    HW233193   1.998   3.962   4.718
10396SOL     OW33194   1.862   4.126   4.352
10396SOL    HW133195   1.780   4.150   4.399
10396SOL    HW233196   1.839   4.040   4.315
10397SOL     OW33197   2.433   5.011   4.918
10397SOL    HW133198   2.344   5.007   4.881
10397SOL    HW233199   2.440   5.104   4.945
10398SOL     OW33200   3.392   5.256   4.429
10398SOL    HW133201   3.359   5.224   4.515
10398SOL    HW233202   3.315   5.250   4.369
10399SOL     OW33203   2.986   4.406   4.431
10399SOL    HW133204   3.024   4.493   4.407
10399SOL    HW233205   2.954   4.423   4.520
10400SOL     OW33206   3.634   4.335   3.963
10400SOL    HW133207   3.618   4.334   3.866
10400SOL    HW233208   3.588   4.253   3.990
10401SOL     OW33209   2.630   4.892   4.766
10401SOL    HW133210   2.557   4.929   4.818
10401SOL    HW233211   2.649   4.966   4.705
10402SOL     OW33212   2.743   4.475   5.529
10402SOL    HW133213   2.704   4.536   5.592
10402SOL    HW233214   2.764   4.532   5.452
10403SOL     OW33215   2.552   4.756   4.377
10403SOL    HW133216   2.608   4.725   4.450
10403SOL    HW233217   2.479   4.802   4.423
10404SOL     OW33218   2.559   4.879   5.532
10404SOL    HW133219   2.593   4.968   5.554
10404SOL    HW233220   2.468   4.899   5.505
10405SOL     OW33221   2.176   5.152   4.790
10405SOL    HW133222   2.109   5.102   4.741
10405SOL    HW233223   2.225   5.203   4.722
10406SOL     OW33224   3.328   5.230   5.079
10406SOL    HW133225   3.389   5.306   5.095
10406SOL    HW233226   3.274   5.232   5.159
10407SOL     OW33227   2.290   4.113   5.261
10407SOL    HW133228   2.368   4.059   5.239
10407SOL    HW233229   2.216   4.059   5.227
10408SOL     OW33230   3.482   4.180   4.471
10408SOL    HW133231   3.409   4.196   4.410
10408SOL    HW233232   3.497   4.269   4.506
10409SOL     OW33233   2.083   5.441   4.196
10409SOL    HW133234   2.112   5.517   4.251
10409SOL    HW233235   2.145   5.447   4.121
10410SOL     OW33236   2.935   5.120   5.437
10410SOL    HW133237   2.996   5.103   5.511
10410SOL    HW233238   2.911   5.028   5.414
10411SOL     OW33239   2.115   5.157   4.252
10411SOL    HW133240   2.111   5.254   4.256
10411SOL    HW233241   2.043   5.130   4.311
10412SOL     OW33242   2.135   4.809   4.629
10412SOL    HW133243   2.131   4.731   4.687
10412SOL    HW233244   2.076   4.871   4.675
10413SOL     OW33245   2.473   5.498   5.157
10413SOL    HW133246   2.384   5.482   5.194
10413SOL    HW233247   2.486   5.593   5.174
10414SOL     OW33248   2.434   4.713   3.839
10414SOL    HW133249   2.485   4.761   3.769
10414SOL    HW233250   2.478   4.747   3.919
10415SOL     OW33251   3.468   3.839   5.211
10415SOL    HW133252   3.421   3.909   5.164
10415SOL    HW233253   3.469   3.875   5.302
10416SOL     OW33254   1.974   4.373   4.289
10416SOL    HW133255   1.942   4.282   4.303
10416SOL    HW233256   1.966   4.413   4.378
10417SOL     OW33257   3.710   5.456   4.074
10417SOL    HW133258   3.771   5.440   4.149
10417SOL    HW233259   3.730   5.548   4.052
10418SOL     OW33260   1.923   5.316   3.837
10418SOL    HW133261   1.909   5.223   3.859
10418SOL    HW233262   1.884   5.361   3.914
10419SOL     OW33263   3.541   4.628   4.365
10419SOL    HW133264   3.627   4.604   4.326
10419SOL    HW233265   3.507   4.689   4.299
10420SOL     OW33266   3.505   4.841   4.175
10420SOL    HW133267   3.593   4.840   4.135
10420SOL    HW233268   3.515   4.911   4.243
10421SOL     OW33269   1.989   4.458   5.303
10421SOL    HW133270   2.075   4.497   5.322
10421SOL    HW233271   1.930   4.532   5.325
10422SOL     OW33272   2.447   5.133   4.473
10422SOL    HW133273   2.408   5.044   4.485
10422SOL    HW233274   2.441   5.142   4.376
10423SOL     OW33275   3.148   4.955   5.151
10423SOL    HW133276   3.180   4.887   5.088
10423SOL    HW233277   3.210   4.941   5.226
10424SOL     OW33278   2.689   3.724   4.209
10424SOL    HW133279   2.723   3.816   4.210
10424SOL    HW233280   2.593   3.739   4.220
10425SOL     OW33281   2.045   4.695   4.985
10425SOL    HW133282   2.134   4.658   4.976
10425SOL    HW233283   1.989   4.629   4.944
10426SOL     OW33284   3.410   4.681   3.908
10426SOL    HW133285   3.327   4.639   3.936
10426SOL    HW233286   3.442   4.717   3.992
10427SOL     OW33287   3.012   5.507   5.322
10427SOL    HW133288   3.042   5.587   5.276
10427SOL    HW233289   3.053   5.437   5.268
10428SOL     OW33290   2.189   3.959   5.536
10428SOL    HW133291   2.247   4.035   5.536
10428SOL    HW233292   2.109   3.997   5.576
10429SOL     OW33293   3.316   5.152   4.666
10429SOL    HW133294   3.261   5.168   4.745
10429SOL    HW233295   3.300   5.057   4.649
10430SOL     OW33296   3.516   5.459   4.317
10430SOL    HW133297   3.506   5.422   4.228
10430SOL    HW233298   3.479   5.387   4.371
10431SOL     OW33299   2.451   4.439   3.986
10431SOL    HW133300   2.453   4.528   3.946
10431SOL    HW233301   2.382   4.447   4.054
10432SOL     OW33302   3.131   4.059   4.637
10432SOL    HW133303   3.043   4.027   4.661
10432SOL    HW233304   3.187   4.019   4.705
10433SOL     OW33305   3.434   5.370   4.027
10433SOL    HW133306   3.527   5.395   4.033
10433SOL    HW233307   3.426   5.360   3.930
10434SOL     OW33308   2.667   4.351   5.187
10434SOL    HW133309   2.648   4.314   5.276
10434SOL    HW233310   2.615   4.292   5.130
10435SOL     OW33311   3.258   4.199   5.390
10435SOL    HW133312   3.267   4.258   5.468
10435SOL    HW233313   3.313   4.122   5.415
10436SOL     OW33314   2.834   4.618   5.314
10436SOL    HW133315   2.886   4.542   5.279
10436SOL    HW233316   2.788   4.646   5.233
10437SOL     OW33317   2.865   4.121   4.960
10437SOL    HW133318   2.778   4.149   4.990
10437SOL    HW233319   2.846   4.065   4.884
10438SOL     OW33320   2.905   4.400   4.138
10438SOL    HW133321   2.912   4.419   4.233
10438SOL    HW233322   2.817   4.355   4.132
10439SOL     OW33323   1.967   4.529   4.518
10439SOL    HW133324   2.040   4.533   4.582
10439SOL    HW233325   1.919   4.611   4.536
10440SOL     OW33326   1.969   5.571   5.290
10440SOL    HW133327   1.981   5.552   5.386
10440SOL    HW233328   1.874   5.554   5.279
10441SOL     OW33329   2.741   4.091   3.934
10441SOL    HW133330   2.783   4.146   3.867
10441SOL    HW233331   2.756   4.003   3.898
10442SOL     OW33332   3.566   4.313   5.567
10442SOL    HW133333   3.535   4.391   5.516
10442SOL    HW233334   3.642   4.286   5.514
10443SOL     OW33335   3.222   4.867   4.293
10443SOL    HW133336   3.300   4.863   4.236
10443SOL    HW233337   3.166   4.929   4.244
10444SOL     OW33338   2.407   3.925   4.619
10444SOL    HW133339   2.413   3.938   4.716
10444SOL    HW233340   2.400   4.015   4.585
10445SOL     OW33341   2.843   5.169   4.204
10445SOL    HW133342   2.802   5.232   4.142
10445SOL    HW233343   2.860   5.224   4.282
10446SOL     OW33344   2.207   5.533   4.574
10446SOL    HW133345   2.248   5.445   4.590
10446SOL    HW233346   2.281   5.593   4.593
10447SOL     OW33347   3.662   4.777   4.582
10447SOL    HW133348   3.607   4.755   4.505
10447SOL    HW233349   3.604   4.757   4.657
10448SOL     OW33350   3.069   5.266   5.221
10448SOL    HW133351   3.063   5.191   5.282
10448SOL    HW233352   3.042   5.225   5.137
10449SOL     OW33353   2.170   4.666   3.984
10449SOL    HW133354   2.249   4.687   3.933
10449SOL    HW233355   2.136   4.588   3.938
10450SOL     OW33356   3.346   4.465   4.431
10450SOL    HW133357   3.338   4.463   4.528
10450SOL    HW233358   3.424   4.522   4.418
10451SOL     OW33359   2.320   4.995   5.448
10451SOL    HW133360   2.280   5.002   5.358
10451SOL    HW233361   2.240   5.000   5.502
10452SOL     OW33362   2.952   5.493   3.960
10452SOL    HW133363   2.882   5.443   4.006
10452SOL    HW233364   2.964   5.445   3.877
10453SOL     OW33365   2.032   4.009   5.221
10453SOL    HW133366   1.961   4.067   5.255
10453SOL    HW233367   2.006   3.921   5.255
10454SOL     OW33368   3.488   5.087   3.815
10454SOL    HW133369   3.445   5.171   3.790
10454SOL    HW233370   3.428   5.020   3.779
10455SOL     OW33371   2.317   5.465   4.038
10455SOL    HW133372   2.365   5.511   4.109
10455SOL    HW233373   2.388   5.431   3.982
10456SOL     OW33374   3.254   3.850   4.168
10456SOL    HW133375   3.244   3.802   4.084
10456SOL    HW233376   3.351   3.851   4.179
10457SOL     OW33377   2.097   5.513   4.942
10457SOL    HW133378   2.154   5.441   4.973
10457SOL    HW233379   2.081   5.489   4.850
10458SOL     OW33380   2.822   5.423   4.615
10458SOL    HW133381   2.909   5.380   4.616
10458SOL    HW233382   2.776   5.375   4.544
10459SOL     OW33383   2.258   4.418   4.196
10459SOL    HW133384   2.281   4.326   4.219
10459SOL    HW233385   2.162   4.418   4.210
10460SOL     OW33386   3.393   3.969   5.445
10460SOL    HW133387   3.399   3.978   5.543
10460SOL    HW233388   3.332   3.895   5.437
10461SOL     OW33389   2.499   3.850   3.820
10461SOL    HW133390   2.565   3.785   3.847
10461SOL    HW233391   2.448   3.800   3.753
10462SOL     OW33392   2.618   3.973   5.458
10462SOL    HW133393   2.699   3.918   5.467
10462SOL    HW233394   2.571   3.953   5.540
10463SOL     OW33395   2.742   5.257   4.919
10463SOL    HW133396   2.737   5.243   4.824
10463SOL    HW233397   2.803   5.188   4.949
10464SOL     OW33398   3.203   4.320   5.147
10464SOL    HW133399   3.233   4.292   5.236
10464SOL    HW233400   3.253   4.403   5.134
10465SOL     OW33401   2.661   5.137   4.641
10465SOL    HW133402   2.748   5.125   4.598
10465SOL    HW233403   2.599   5.137   4.566
10466SOL     OW33404   2.801   4.248   4.636
10466SOL    HW133405   2.776   4.238   4.541
10466SOL    HW233406   2.827   4.157   4.657
10467SOL     OW33407   2.423   3.773   4.230
10467SOL    HW133408   2.342   3.776   4.284
10467SOL    HW233409   2.411   3.851   4.172
10468SOL     OW33410   3.308   4.896   3.747
10468SOL    HW133411   3.334   4.822   3.806
10468SOL    HW233412   3.221   4.922   3.780
10469SOL     OW33413   2.143   3.764   3.914
10469SOL    HW133414   2.198   3.836   3.881
10469SOL    HW233415   2.209   3.708   3.958
10470SOL     OW33416   2.793   3.976   4.216
10470SOL    HW133417   2.773   4.022   4.133
10470SOL    HW233418   2.890   3.989   4.220
10471SOL     OW33419   2.949   4.410   5.195
10471SOL    HW133420   2.892   4.332   5.199
10471SOL    HW233421   3.038   4.374   5.183
10472SOL     OW33422   3.078   5.313   4.526
10472SOL    HW133423   3.087   5.365   4.444
10472SOL    HW233424   3.163   5.327   4.569
10473SOL     OW33425   2.331   4.889   4.462
10473SOL    HW133426   2.258   4.856   4.519
10473SOL    HW233427   2.297   4.866   4.373
10474SOL     OW33428   3.127   5.535   4.315
10474SOL    HW133429   3.179   5.598   4.261
10474SOL    HW233430   3.095   5.594   4.385
10475SOL     OW33431   2.919   4.257   3.750
10475SOL    HW133432   2.872   4.340   3.730
10475SOL    HW233433   2.986   4.283   3.815
10476SOL     OW33434   1.925   4.271   5.117
10476SOL    HW133435   2.018   4.246   5.103
10476SOL    HW233436   1.935   4.345   5.181
10477SOL     OW33437   2.427   3.949   4.894
10477SOL    HW133438   2.472   3.873   4.934
10477SOL    HW233439   2.335   3.936   4.926
10478SOL     OW33440   2.742   4.191   4.389
10478SOL    HW133441   2.690   4.238   4.323
10478SOL    HW233442   2.760   4.106   4.344
10479SOL     OW33443   2.903   3.788   4.495
10479SOL    HW133444   2.847   3.780   4.417
10479SOL    HW233445   2.876   3.710   4.547
10480SOL     OW33446   3.277   4.896   4.601
10480SOL    HW133447   3.210   4.832   4.628
10480SOL    HW233448   3.277   4.884   4.504
10481SOL     OW33449   3.307   4.299   4.727
10481SOL    HW133450   3.263   4.217   4.700
10481SOL    HW233451   3.393   4.270   4.759
10482SOL     OW33452   3.699   4.554   4.117
10482SOL    HW133453   3.754   4.501   4.179
10482SOL    HW233454   3.677   4.487   4.050
10483SOL     OW33455   2.352   5.154   3.848
10483SOL    HW133456   2.271   5.134   3.896
10483SOL    HW233457   2.345   5.099   3.769
10484SOL     OW33458   3.534   5.017   4.381
10484SOL    HW133459   3.631   5.023   4.389
10484SOL    HW233460   3.502   5.104   4.410
10485SOL     OW33461   3.271   4.317   3.785
10485SOL    HW133462   3.224   4.288   3.865
10485SOL    HW233463   3.362   4.294   3.805
10486SOL     OW33464   2.386   3.959   4.044
10486SOL    HW133465   2.433   3.925   3.965
10486SOL    HW233466   2.357   4.047   4.011
10487SOL     OW33467   3.591   4.959   5.307
10487SOL    HW133468   3.675   4.924   5.272
10487SOL    HW233469   3.620   5.044   5.345
10488SOL     OW33470   2.928   5.083   5.063
10488SOL    HW133471   2.855   5.042   5.112
10488SOL    HW233472   3.005   5.029   5.094
10489SOL     OW33473   3.459   5.311   5.360
10489SOL    HW133474   3.480   5.358   5.278
10489SOL    HW233475   3.544   5.271   5.383
10490SOL     OW33476   2.984   4.950   4.815
10490SOL    HW133477   2.912   4.968   4.877
10490SOL    HW233478   2.951   4.992   4.734
10491SOL     OW33479   3.464   4.807   4.789
10491SOL    HW133480   3.471   4.873   4.860
10491SOL    HW233481   3.408   4.854   4.724
10492SOL     OW33482   2.775   3.820   5.129
10492SOL    HW133483   2.802   3.794   5.038
10492SOL    HW233484   2.855   3.865   5.161
10493SOL     OW33485   2.848   4.848   5.468
10493SOL    HW133486   2.754   4.862   5.484
10493SOL    HW233487   2.849   4.774   5.403
10494SOL     OW33488   2.579   4.788   4.071
10494SOL    HW133489   2.563   4.762   4.163
10494SOL    HW233490   2.652   4.727   4.045
10495SOL     OW33491   2.283   4.531   4.990
10495SOL    HW133492   2.356   4.537   5.056
10495SOL    HW233493   2.244   4.444   5.007
10496SOL     OW33494   3.152   4.111   4.992
10496SOL    HW133495   3.169   4.190   5.046
10496SOL    HW233496   3.060   4.126   4.965
10497SOL     OW33497   1.941   5.290   5.067
10497SOL    HW133498   1.932   5.378   5.028
10497SOL    HW233499   2.037   5.273   5.060
10498SOL     OW33500   2.237   4.826   4.225
10498SOL    HW133501   2.254   4.891   4.156
10498SOL    HW233502   2.213   4.747   4.174
10499SOL     OW33503   2.394   4.268   4.565
10499SOL    HW133504   2.422   4.332   4.497
10499SOL    HW233505   2.459   4.282   4.636
10500SOL     OW33506   3.085   5.053   4.116
10500SOL    HW133507   3.128   5.133   4.151
10500SOL    HW233508   2.993   5.069   4.141
10501SOL     OW33509   3.152   5.186   4.880
10501SOL    HW133510   3.216   5.187   4.954
10501SOL    HW233511   3.106   5.102   4.893
10502SOL     OW33512   3.453   4.326   4.202
10502SOL    HW133513   3.395   4.379   4.258
10502SOL    HW233514   3.482   4.389   4.135
10503SOL     OW33515   2.202   5.238   5.031
10503SOL    HW133516   2.191   5.198   4.942
10503SOL    HW233517   2.297   5.259   5.029
10504SOL     OW33518   2.302   4.452   5.351
10504SOL    HW133519   2.356   4.495   5.283
10504SOL    HW233520   2.334   4.361   5.349
10505SOL     OW33521   3.470   4.461   5.360
10505SOL    HW133522   3.391   4.513   5.378
10505SOL    HW233523   3.525   4.528   5.315
10506SOL     OW33524   2.845   3.834   5.476
10506SOL    HW133525   2.902   3.909   5.455
10506SOL    HW233526   2.897   3.761   5.440
10507SOL     OW33527   2.364   3.742   5.484
10507SOL    HW133528   2.323   3.683   5.418
10507SOL    HW233529   2.298   3.814   5.488
10508SOL     OW33530   2.451   4.620   4.776
10508SOL    HW133531   2.483   4.711   4.779
10508SOL    HW233532   2.396   4.612   4.856
10509SOL     OW33533   3.235   4.569   4.718
10509SOL    HW133534   3.142   4.549   4.705
10509SOL    HW233535   3.270   4.482   4.743
10510SOL     OW33536   3.093   4.245   3.990
10510SOL    HW133537   3.096   4.166   4.048
10510SOL    HW233538   3.029   4.300   4.039
10511SOL     OW33539   2.167   3.917   4.979
10511SOL    HW133540   2.114   3.943   5.057
10511SOL    HW233541   2.145   3.821   4.971
10512SOL     OW33542   1.899   5.028   5.009
10512SOL    HW133543   1.930   4.971   5.082
10512SOL    HW233544   1.909   5.118   5.045
10513SOL     OW33545   2.573   4.355   4.758
10513SOL    HW133546   2.658   4.338   4.715
10513SOL    HW233547   2.558   4.451   4.746
10514SOL     OW33548   3.615   4.644   5.561
10514SOL    HW133549   3.520   4.652   5.565
10514SOL    HW233550   3.645   4.685   5.644
10515SOL     OW33551   2.174   3.785   4.332
10515SOL    HW133552   2.145   3.875   4.355
10515SOL    HW233553   2.174   3.741   4.419
10516SOL     OW33554   3.463   4.104   4.062
10516SOL    HW133555   3.494   4.032   4.117
10516SOL    HW233556   3.454   4.178   4.126
10517SOL     OW33557   2.927   4.479   4.694
10517SOL    HW133558   2.910   4.496   4.788
10517SOL    HW233559   2.888   4.390   4.683
10518SOL     OW33560   3.730   5.218   5.344
10518SOL    HW133561   3.753   5.251   5.256
10518SOL    HW233562   3.793   5.265   5.401
10519SOL     OW33563   2.223   4.631   5.521
10519SOL    HW133564   2.308   4.647   5.565
10519SOL    HW233565   2.243   4.553   5.465
10520SOL     OW33566   3.366   3.977   3.848
10520SOL    HW133567   3.291   3.927   3.884
10520SOL    HW233568   3.403   4.022   3.926
10521SOL     OW33569   3.142   4.556   3.749
10521SOL    HW133570   3.190   4.472   3.761
10521SOL    HW233571   3.172   4.583   3.660
10522SOL     OW33572   2.924   5.089   4.573
10522SOL    HW133573   2.949   5.012   4.516
10522SOL    HW233574   2.994   5.155   4.555
10523SOL     OW33575   2.150   4.546   4.727
10523SOL    HW133576   2.243   4.564   4.708
10523SOL    HW233577   2.153   4.452   4.750
10524SOL     OW33578   2.181   4.264   4.729
10524SOL    HW133579   2.149   4.173   4.713
10524SOL    HW233580   2.247   4.273   4.657
10525SOL     OW33581   3.012   4.097   5.416
10525SOL    HW133582   2.970   4.154   5.484
10525SOL    HW233583   3.102   4.135   5.414
10526SOL     OW33584   3.026   3.926   5.204
10526SOL    HW133585   3.023   3.989   5.279
10526SOL    HW233586   3.068   3.980   5.135
10527SOL     OW33587   1.860   5.050   3.920
10527SOL    HW133588   1.769   5.067   3.886
10527SOL    HW233589   1.852   4.960   3.955
10528SOL     OW33590   1.961   5.513   4.671
10528SOL    HW133591   1.933   5.440   4.611
10528SOL    HW233592   2.051   5.532   4.636
10529SOL     OW33593   2.345   5.310   4.651
10529SOL    HW133594   2.415   5.377   4.669
10529SOL    HW233595   2.391   5.248   4.591
10530SOL     OW33596   2.846   4.506   4.961
10530SOL    HW133597   2.897   4.475   5.039
10530SOL    HW233598   2.759   4.471   4.980
10531SOL     OW33599   1.888   4.252   4.834
10531SOL    HW133600   1.967   4.238   4.781
10531SOL    HW233601   1.925   4.262   4.923
10532SOL     OW33602   2.088   4.239   5.444
10532SOL    HW133603   2.138   4.189   5.377
10532SOL    HW233604   2.050   4.311   5.391
10533SOL     OW33605   3.258   4.648   5.383
10533SOL    HW133606   3.294   4.739   5.377
10533SOL    HW233607   3.250   4.624   5.289
10534SOL     OW33608   2.663   4.298   4.097
10534SOL    HW133609   2.672   4.227   4.031
10534SOL    HW233610   2.586   4.347   4.065
10535SOL     OW33611   3.503   4.359   4.938
10535SOL    HW133612   3.444   4.301   4.985
10535SOL    HW233613   3.576   4.302   4.907
10536SOL     OW33614   2.119   5.266   5.441
10536SOL    HW133615   2.099   5.330   5.512
10536SOL    HW233616   2.123   5.182   5.491
10537SOL     OW33617   2.550   4.205   4.989
10537SOL    HW133618   2.506   4.124   4.958
10537SOL    HW233619   2.545   4.264   4.911
10538SOL     OW33620   2.770   5.420   5.167
10538SOL    HW133621   2.775   5.380   5.079
10538SOL    HW233622   2.766   5.515   5.146
10539SOL     OW33623   2.309   4.193   3.933
10539SOL    HW133624   2.372   4.266   3.932
10539SOL    HW233625   2.225   4.240   3.919
10540SOL     OW33626   1.979   4.851   5.191
10540SOL    HW133627   1.990   4.797   5.272
10540SOL    HW233628   2.005   4.789   5.120
10541SOL     OW33629   3.185   4.764   4.949
10541SOL    HW133630   3.214   4.706   4.876
10541SOL    HW233631   3.120   4.821   4.905
10542SOL     OW33632   3.172   4.578   4.019
10542SOL    HW133633   3.092   4.546   4.064
10542SOL    HW233634   3.146   4.579   3.926
10543SOL     OW33635   3.603   5.476   4.843
10543SOL    HW133636   3.681   5.500   4.789
10543SOL    HW233637   3.604   5.379   4.835
10544SOL     OW33638   3.102   5.454   4.835
10544SOL    HW133639   3.194   5.475   4.812
10544SOL    HW233640   3.107   5.357   4.847
10545SOL     OW33641   1.965   4.981   4.754
10545SOL    HW133642   1.937   5.000   4.846
10545SOL    HW233643   1.890   4.931   4.719
10546SOL     OW33644   2.594   5.395   5.417
10546SOL    HW133645   2.533   5.463   5.449
10546SOL    HW233646   2.573   5.395   5.322
10547SOL     OW33647   3.538   3.856   4.213
10547SOL    HW133648   3.616   3.845   4.157
10547SOL    HW233649   3.539   3.774   4.267
10548SOL     OW33650   3.218   5.298   4.200
10548SOL    HW133651   3.282   5.317   4.129
10548SOL    HW233652   3.182   5.386   4.221
10549SOL     OW33653   2.014   5.519   5.553
10549SOL    HW133654   1.971   5.450   5.608
10549SOL    HW233655   2.057   5.571   5.623
10550SOL     OW33656   3.117   4.635   4.393
10550SOL    HW133657   3.199   4.582   4.402
10550SOL    HW233658   3.151   4.715   4.348
10551SOL     OW33659   2.680   4.990   5.159
10551SOL    HW133660   2.647   5.035   5.239
10551SOL    HW233661   2.611   5.013   5.095
10552SOL     OW33662   2.525   5.348   3.882
10552SOL    HW133663   2.542   5.357   3.786
10552SOL    HW233664   2.465   5.270   3.880
10553SOL     OW33665   3.482   5.447   5.104
10553SOL    HW133666   3.531   5.465   5.022
10553SOL    HW233667   3.480   5.536   5.144
10554SOL     OW33668   3.703   3.891   4.701
10554SOL    HW133669   3.730   3.802   4.670
10554SOL    HW233670   3.616   3.905   4.657
10555SOL     OW33671   2.110   4.032   4.426
10555SOL    HW133672   2.028   4.083   4.412
10555SOL    HW233673   2.123   4.038   4.522
10556SOL     OW33674   3.048   5.351   3.745
10556SOL    HW133675   3.054   5.256   3.765
10556SOL    HW233676   2.987   5.354   3.668
10557SOL     OW33677   2.688   4.724   5.111
10557SOL    HW133678   2.718   4.729   5.019
10557SOL    HW233679   2.688   4.818   5.138
10558SOL     OW33680   2.775   4.631   3.999
10558SOL    HW133681   2.850   4.672   3.952
10558SOL    HW233682   2.814   4.553   4.040
10559SOL     OW33683   3.414   5.347   3.757
10559SOL    HW133684   3.319   5.365   3.754
10559SOL    HW233685   3.437   5.345   3.662
10560SOL     OW33686   2.207   5.005   5.210
10560SOL    HW133687   2.194   5.074   5.144
10560SOL    HW233688   2.126   4.951   5.203
10561SOL     OW33689   3.461   5.023   4.977
10561SOL    HW133690   3.536   5.009   5.037
10561SOL    HW233691   3.413   5.097   5.020
10562SOL     OW33692   2.919   4.836   4.462
10562SOL    HW133693   2.837   4.788   4.483
10562SOL    HW233694   2.978   4.763   4.438
10563SOL     OW33695   2.888   3.952   4.714
10563SOL    HW133696   2.881   3.910   4.626
10563SOL    HW233697   2.886   3.873   4.773
10564SOL     OW33698   2.478   5.212   4.211
10564SOL    HW133699   2.528   5.169   4.140
10564SOL    HW233700   2.402   5.249   4.165
10565SOL     OW33701   2.109   5.102   3.993
10565SOL    HW133702   2.013   5.088   3.984
10565SOL    HW233703   2.118   5.122   4.088
10566SOL     OW33704   1.990   4.732   5.427
10566SOL    HW133705   1.917   4.715   5.491
10566SOL    HW233706   2.069   4.702   5.475
10567SOL     OW33707   2.521   3.914   5.211
10567SOL    HW133708   2.608   3.882   5.183
10567SOL    HW233709   2.540   3.939   5.304
10568SOL     OW33710   1.956   4.085   3.771
10568SOL    HW133711   1.867   4.071   3.737
10568SOL    HW233712   1.991   4.149   3.706
10569SOL     OW33713   3.313   4.577   5.113
10569SOL    HW133714   3.275   4.641   5.051
10569SOL    HW233715   3.406   4.606   5.119
10570SOL     OW33716   1.906   3.887   4.016
10570SOL    HW133717   1.904   3.974   3.975
10570SOL    HW233718   1.990   3.852   3.980
10571SOL     OW33719   3.067   5.080   3.837
10571SOL    HW133720   2.986   5.029   3.843
10571SOL    HW233721   3.095   5.083   3.931
10572SOL     OW33722   2.485   4.544   5.163
10572SOL    HW133723   2.544   4.621   5.159
10572SOL    HW233724   2.553   4.473   5.170
10573SOL     OW33725   3.363   5.501   4.701
10573SOL    HW133726   3.404   5.536   4.620
10573SOL    HW233727   3.441   5.490   4.758
10574SOL     OW33728   2.589   4.251   5.417
10574SOL    HW133729   2.616   4.304   5.494
10574SOL    HW233730   2.598   4.158   5.446
10575SOL     OW33731   3.330   4.915   5.351
10575SOL    HW133732   3.326   4.918   5.448
10575SOL    HW233733   3.425   4.934   5.334
10576SOL     OW33734   2.236   5.455   5.283
10576SOL    HW133735   2.152   5.502   5.265
10576SOL    HW233736   2.202   5.373   5.323
10577SOL     OW33737   3.592   4.615   4.951
10577SOL    HW133738   3.561   4.524   4.935
10577SOL    HW233739   3.541   4.669   4.888
10578SOL     OW33740   3.060   4.045   4.197
10578SOL    HW133741   3.132   3.979   4.193
10578SOL    HW233742   3.091   4.102   4.271
10579SOL     OW33743   2.450   4.474   4.386
10579SOL    HW133744   2.478   4.566   4.377
10579SOL    HW233745   2.380   4.466   4.318
10580SOL     OW33746   3.600   4.110   5.324
10580SOL    HW133747   3.560   4.195   5.344
10580SOL    HW233748   3.556   4.052   5.388
10581SOL     OW33749   3.565   4.667   5.213
10581SOL    HW133750   3.612   4.744   5.249
10581SOL    HW233751   3.604   4.661   5.124
10582SOL     OW33752   2.715   5.085   3.752
10582SOL    HW133753   2.688   5.099   3.844
10582SOL    HW233754   2.741   5.173   3.722
10583SOL     OW33755   2.508   5.534   4.649
10583SOL    HW133756   2.501   5.628   4.626
10583SOL    HW233757   2.603   5.519   4.653
10584SOL     OW33758   2.731   4.660   4.573
10584SOL    HW133759   2.789   4.596   4.616
10584SOL    HW233760   2.713   4.723   4.644
10585SOL     OW33761   2.964   4.736   3.833
10585SOL    HW133762   2.925   4.782   3.757
10585SOL    HW233763   3.018   4.668   3.788
10586SOL     OW33764   3.724   5.283   4.550
10586SOL    HW133765   3.631   5.280   4.527
10586SOL    HW233766   3.727   5.232   4.632
10587SOL     OW33767   2.096   5.042   5.587
10587SOL    HW133768   2.015   4.991   5.569
10587SOL    HW233769   2.085   5.059   5.682
10588SOL     OW33770   1.947   4.974   4.383
10588SOL    HW133771   1.955   4.926   4.467
10588SOL    HW233772   2.019   4.936   4.332
10589SOL     OW33773   2.543   5.125   5.350
10589SOL    HW133774   2.466   5.070   5.375
10589SOL    HW233775   2.530   5.203   5.406
10590SOL     OW33776   3.687   3.895   4.961
10590SOL    HW133777   3.702   3.800   4.972
10590SOL    HW233778   3.694   3.902   4.863
10591SOL     OW33779   2.299   4.155   4.261
10591SOL    HW133780   2.332   4.084   4.204
10591SOL    HW233781   2.250   4.107   4.330
10592SOL     OW33782   3.602   5.207   4.815
10592SOL    HW133783   3.516   5.163   4.813
10592SOL    HW233784   3.653   5.145   4.871
10593SOL     OW33785   2.187   4.255   5.009
10593SOL    HW133786   2.263   4.217   5.056
10593SOL    HW233787   2.204   4.231   4.916
10594SOL     OW33788   2.686   5.320   4.400
10594SOL    HW133789   2.681   5.352   4.309
10594SOL    HW233790   2.604   5.270   4.408
10595SOL     OW33791   3.306   3.972   4.824
10595SOL    HW133792   3.320   3.882   4.855
10595SOL    HW233793   3.255   4.014   4.896
10596SOL     OW33794   2.876   3.722   4.885
10596SOL    HW133795   2.821   3.646   4.860
10596SOL    HW233796   2.966   3.682   4.880
10597SOL     OW33797   2.651   5.062   4.032
10597SOL    HW133798   2.620   4.970   4.035
10597SOL    HW233799   2.721   5.060   4.099
10598SOL     OW33800   2.466   5.280   4.991
10598SOL    HW133801   2.469   5.359   5.047
10598SOL    HW233802   2.558   5.276   4.961
10599SOL     OW33803   3.177   3.756   3.907
10599SOL    HW133804   3.191   3.696   3.833
10599SOL    HW233805   3.089   3.726   3.939
10600SOL     OW33806   3.153   4.196   4.399
10600SOL    HW133807   3.093   4.273   4.400
10600SOL    HW233808   3.136   4.155   4.486
10601SOL     OW33809   3.465   3.931   4.590
10601SOL    HW133810   3.394   3.946   4.654
10601SOL    HW233811   3.469   4.016   4.543
10602SOL     OW33812   1.906   4.802   4.043
10602SOL    HW133813   1.998   4.798   4.013
10602SOL    HW233814   1.888   4.707   4.058
10603SOL     OW33815   2.730   5.375   4.057
10603SOL    HW133816   2.653   5.363   3.998
10603SOL    HW233817   2.708   5.456   4.108
10604SOL     OW33818   2.102   4.368   5.730
10604SOL    HW133819   2.010   4.351   5.754
10604SOL    HW233820   2.108   4.341   5.637
10605SOL     OW33821   2.087   4.013   6.588
10605SOL    HW133822   2.104   3.987   6.680
10605SOL    HW233823   1.999   3.972   6.574
10606SOL     OW33824   1.867   4.122   6.206
10606SOL    HW133825   1.788   4.148   6.257
10606SOL    HW233826   1.838   4.038   6.167
10607SOL     OW33827   2.422   5.011   6.777
10607SOL    HW133828   2.331   5.008   6.744
10607SOL    HW233829   2.431   5.104   6.804
10608SOL     OW33830   3.413   5.265   6.291
10608SOL    HW133831   3.376   5.244   6.379
10608SOL    HW233832   3.338   5.257   6.229
10609SOL     OW33833   3.001   4.428   6.335
10609SOL    HW133834   3.048   4.509   6.308
10609SOL    HW233835   2.909   4.453   6.323
10610SOL     OW33836   3.647   4.310   5.822
10610SOL    HW133837   3.617   4.333   5.732
10610SOL    HW233838   3.568   4.273   5.861
10611SOL     OW33839   2.590   4.884   6.606
10611SOL    HW133840   2.530   4.925   6.671
10611SOL    HW233841   2.632   4.964   6.568
10612SOL     OW33842   2.739   4.465   7.381
10612SOL    HW133843   2.713   4.527   7.450
10612SOL    HW233844   2.761   4.524   7.306
10613SOL     OW33845   2.538   4.726   6.247
10613SOL    HW133846   2.607   4.720   6.315
10613SOL    HW233847   2.478   4.794   6.284
10614SOL     OW33848   2.569   4.875   7.381
10614SOL    HW133849   2.609   4.960   7.408
10614SOL    HW233850   2.483   4.904   7.347
10615SOL     OW33851   2.171   5.158   6.660
10615SOL    HW133852   2.094   5.134   6.607
10615SOL    HW233853   2.224   5.210   6.596
10616SOL     OW33854   3.336   5.204   6.968
10616SOL    HW133855   3.391   5.285   6.959
10616SOL    HW233856   3.269   5.233   7.033
10617SOL     OW33857   2.310   4.125   7.098
10617SOL    HW133858   2.389   4.069   7.090
10617SOL    HW233859   2.237   4.061   7.096
10618SOL     OW33860   3.476   4.174   6.323
10618SOL    HW133861   3.403   4.208   6.269
10618SOL    HW233862   3.506   4.252   6.370
10619SOL     OW33863   2.089   5.443   6.055
10619SOL    HW133864   2.111   5.516   6.118
10619SOL    HW233865   2.156   5.456   5.986
10620SOL     OW33866   2.991   5.077   7.250
10620SOL    HW133867   3.029   5.076   7.338
10620SOL    HW233868   2.950   4.988   7.248
10621SOL     OW33869   2.105   5.159   6.122
10621SOL    HW133870   2.103   5.256   6.127
10621SOL    HW233871   2.033   5.138   6.185
10622SOL     OW33872   2.147   4.797   6.481
10622SOL    HW133873   2.140   4.722   6.543
10622SOL    HW233874   2.087   4.861   6.524
10623SOL     OW33875   2.460   5.515   6.990
10623SOL    HW133876   2.387   5.492   7.050
10623SOL    HW233877   2.487   5.604   7.022
10624SOL     OW33878   2.445   4.713   5.707
10624SOL    HW133879   2.493   4.765   5.640
10624SOL    HW233880   2.480   4.752   5.789
10625SOL     OW33881   3.468   3.847   7.075
10625SOL    HW133882   3.487   3.924   7.018
10625SOL    HW233883   3.473   3.886   7.163
10626SOL     OW33884   1.974   4.374   6.151
10626SOL    HW133885   1.942   4.283   6.166
10626SOL    HW233886   1.964   4.415   6.239
10627SOL     OW33887   1.933   5.315   5.709
10627SOL    HW133888   1.907   5.223   5.725
10627SOL    HW233889   1.903   5.359   5.791
10628SOL     OW33890   3.513   4.653   6.230
10628SOL    HW133891   3.607   4.633   6.244
10628SOL    HW233892   3.515   4.697   6.144
10629SOL     OW33893   3.501   4.854   6.020
10629SOL    HW133894   3.592   4.844   5.988
10629SOL    HW233895   3.508   4.934   6.074
10630SOL     OW33896   1.983   4.451   7.183
10630SOL    HW133897   2.071   4.489   7.197
10630SOL    HW233898   1.927   4.529   7.199
10631SOL     OW33899   2.471   5.130   6.351
10631SOL    HW133900   2.423   5.045   6.364
10631SOL    HW233901   2.462   5.140   6.254
10632SOL     OW33902   3.143   4.947   7.017
10632SOL    HW133903   3.160   4.863   6.972
10632SOL    HW233904   3.208   4.944   7.090
10633SOL     OW33905   2.692   3.722   6.098
10633SOL    HW133906   2.722   3.814   6.085
10633SOL    HW233907   2.595   3.734   6.094
10634SOL     OW33908   2.039   4.677   6.868
10634SOL    HW133909   2.131   4.668   6.837
10634SOL    HW233910   1.988   4.639   6.796
10635SOL     OW33911   3.404   4.697   5.773
10635SOL    HW133912   3.330   4.656   5.822
10635SOL    HW233913   3.460   4.730   5.845
10636SOL     OW33914   3.036   5.531   7.198
10636SOL    HW133915   3.043   5.596   7.126
10636SOL    HW233916   3.059   5.448   7.153
10637SOL     OW33917   2.192   3.979   7.374
10637SOL    HW133918   2.265   4.022   7.420
10637SOL    HW233919   2.115   4.018   7.419
10638SOL     OW33920   3.311   5.163   6.533
10638SOL    HW133921   3.253   5.179   6.610
10638SOL    HW233922   3.291   5.070   6.512
10639SOL     OW33923   3.536   5.461   6.171
10639SOL    HW133924   3.486   5.459   6.088
10639SOL    HW233925   3.495   5.389   6.223
10640SOL     OW33926   2.446   4.430   5.850
10640SOL    HW133927   2.446   4.518   5.811
10640SOL    HW233928   2.369   4.432   5.910
10641SOL     OW33929   3.124   4.081   6.518
10641SOL    HW133930   3.037   4.039   6.534
10641SOL    HW233931   3.183   4.031   6.578
10642SOL     OW33932   3.445   5.382   5.890
10642SOL    HW133933   3.539   5.364   5.885
10642SOL    HW233934   3.419   5.370   5.797
10643SOL     OW33935   2.668   4.340   7.047
10643SOL    HW133936   2.642   4.305   7.135
10643SOL    HW233937   2.619   4.281   6.987
10644SOL     OW33938   3.255   4.202   7.263
10644SOL    HW133939   3.258   4.262   7.340
10644SOL    HW233940   3.314   4.129   7.289
10645SOL     OW33941   2.816   4.611   7.162
10645SOL    HW133942   2.863   4.531   7.130
10645SOL    HW233943   2.779   4.647   7.079
10646SOL     OW33944   2.844   4.136   6.785
10646SOL    HW133945   2.760   4.146   6.832
10646SOL    HW233946   2.836   4.050   6.741
10647SOL     OW33947   2.904   4.406   5.993
10647SOL    HW133948   2.905   4.430   6.087
10647SOL    HW233949   2.820   4.357   5.987
10648SOL     OW33950   1.958   4.526   6.379
10648SOL    HW133951   2.033   4.544   6.437
10648SOL    HW233952   1.903   4.605   6.395
10649SOL     OW33953   1.970   5.518   7.145
10649SOL    HW133954   1.973   5.514   7.243
10649SOL    HW233955   1.903   5.585   7.129
10650SOL     OW33956   2.748   4.109   5.791
10650SOL    HW133957   2.794   4.163   5.725
10650SOL    HW233958   2.761   4.021   5.754
10651SOL     OW33959   3.574   4.309   7.424
10651SOL    HW133960   3.539   4.382   7.370
10651SOL    HW233961   3.611   4.252   7.356
10652SOL     OW33962   3.219   4.880   6.134
10652SOL    HW133963   3.304   4.867   6.088
10652SOL    HW233964   3.176   4.949   6.081
10653SOL     OW33965   2.409   3.909   6.479
10653SOL    HW133966   2.418   3.938   6.572
10653SOL    HW233967   2.396   3.992   6.432
10654SOL     OW33968   2.858   5.167   6.098
10654SOL    HW133969   2.836   5.232   6.028
10654SOL    HW233970   2.834   5.217   6.178
10655SOL     OW33971   2.203   5.539   6.446
10655SOL    HW133972   2.246   5.452   6.459
10655SOL    HW233973   2.276   5.600   6.465
10656SOL     OW33974   3.663   4.714   6.460
10656SOL    HW133975   3.595   4.761   6.411
10656SOL    HW233976   3.692   4.778   6.527
10657SOL     OW33977   3.091   5.276   7.084
10657SOL    HW133978   3.066   5.214   7.154
10657SOL    HW233979   3.043   5.239   7.008
10658SOL     OW33980   2.164   4.668   5.844
10658SOL    HW133981   2.247   4.686   5.799
10658SOL    HW233982   2.131   4.589   5.799
10659SOL     OW33983   3.331   4.482   6.312
10659SOL    HW133984   3.353   4.453   6.402
10659SOL    HW233985   3.405   4.543   6.291
10660SOL     OW33986   2.327   4.984   7.303
10660SOL    HW133987   2.289   4.987   7.212
10660SOL    HW233988   2.247   5.003   7.355
10661SOL     OW33989   2.962   5.483   5.815
10661SOL    HW133990   2.899   5.437   5.872
10661SOL    HW233991   2.965   5.427   5.736
10662SOL     OW33992   2.028   4.003   7.083
10662SOL    HW133993   1.956   3.999   7.020
10662SOL    HW233994   2.022   3.915   7.125
10663SOL     OW33995   3.523   5.091   5.620
10663SOL    HW133996   3.474   5.172   5.644
10663SOL    HW233997   3.454   5.023   5.620
10664SOL     OW33998   2.315   5.473   5.899
10664SOL    HW133999   2.359   5.518   5.974
10664SOL    HW234000   2.390   5.439   5.848
10665SOL     OW34001   3.259   3.816   6.026
10665SOL    HW134002   3.260   3.782   5.935
10665SOL    HW234003   3.351   3.845   6.038
10666SOL     OW34004   2.111   5.517   6.818
10666SOL    HW134005   2.164   5.446   6.856
10666SOL    HW234006   2.090   5.484   6.730
10667SOL     OW34007   2.818   5.399   6.486
10667SOL    HW134008   2.909   5.370   6.475
10667SOL    HW234009   2.773   5.357   6.410
10668SOL     OW34010   2.247   4.408   6.046
10668SOL    HW134011   2.268   4.316   6.076
10668SOL    HW234012   2.152   4.415   6.065
10669SOL     OW34013   3.401   3.977   7.311
10669SOL    HW134014   3.400   3.981   7.411
10669SOL    HW234015   3.343   3.900   7.297
10670SOL     OW34016   2.495   3.861   5.685
10670SOL    HW134017   2.568   3.801   5.704
10670SOL    HW234018   2.442   3.808   5.622
10671SOL     OW34019   2.635   3.988   7.307
10671SOL    HW134020   2.713   3.931   7.316
10671SOL    HW234021   2.586   3.968   7.389
10672SOL     OW34022   2.738   5.263   6.782
10672SOL    HW134023   2.735   5.253   6.685
10672SOL    HW234024   2.793   5.187   6.809
10673SOL     OW34025   3.190   4.326   7.016
10673SOL    HW134026   3.232   4.291   7.097
10673SOL    HW234027   3.246   4.403   6.994
10674SOL     OW34028   2.685   5.124   6.522
10674SOL    HW134029   2.769   5.124   6.471
10674SOL    HW234030   2.616   5.130   6.453
10675SOL     OW34031   2.798   4.260   6.500
10675SOL    HW134032   2.778   4.254   6.404
10675SOL    HW234033   2.794   4.166   6.525
10676SOL     OW34034   2.421   3.768   6.089
10676SOL    HW134035   2.339   3.770   6.142
10676SOL    HW234036   2.409   3.848   6.033
10677SOL     OW34037   3.310   4.903   5.620
10677SOL    HW134038   3.341   4.828   5.675
10677SOL    HW234039   3.217   4.910   5.646
10678SOL     OW34040   2.143   3.762   5.773
10678SOL    HW134041   2.203   3.833   5.746
10678SOL    HW234042   2.205   3.698   5.812
10679SOL     OW34043   2.792   3.977   6.082
10679SOL    HW134044   2.770   4.026   6.002
10679SOL    HW234045   2.889   3.987   6.082
10680SOL     OW34046   2.942   4.410   7.050
10680SOL    HW134047   2.894   4.327   7.062
10680SOL    HW234048   3.036   4.381   7.045
10681SOL     OW34049   3.094   5.314   6.369
10681SOL    HW134050   3.101   5.382   6.298
10681SOL    HW234051   3.167   5.339   6.426
10682SOL     OW34052   2.342   4.895   6.328
10682SOL    HW134053   2.270   4.860   6.386
10682SOL    HW234054   2.305   4.871   6.240
10683SOL     OW34055   3.123   5.523   6.202
10683SOL    HW134056   3.180   5.576   6.140
10683SOL    HW234057   3.087   5.594   6.258
10684SOL     OW34058   2.925   4.267   5.604
10684SOL    HW134059   2.873   4.347   5.583
10684SOL    HW234060   2.996   4.300   5.659
10685SOL     OW34061   1.930   4.278   6.986
10685SOL    HW134062   2.023   4.273   6.954
10685SOL    HW234063   1.930   4.364   7.032
10686SOL     OW34064   2.433   3.955   6.748
10686SOL    HW134065   2.479   3.886   6.799
10686SOL    HW234066   2.341   3.944   6.779
10687SOL     OW34067   2.740   4.201   6.246
10687SOL    HW134068   2.687   4.238   6.174
10687SOL    HW234069   2.759   4.112   6.212
10688SOL     OW34070   2.893   3.779   6.362
10688SOL    HW134071   2.842   3.769   6.280
10688SOL    HW234072   2.872   3.699   6.413
10689SOL     OW34073   3.307   4.907   6.462
10689SOL    HW134074   3.248   4.845   6.419
10689SOL    HW234075   3.367   4.933   6.389
10690SOL     OW34076   3.325   4.328   6.583
10690SOL    HW134077   3.300   4.235   6.581
10690SOL    HW234078   3.403   4.331   6.641
10691SOL     OW34079   3.653   4.553   5.998
10691SOL    HW134080   3.726   4.505   6.042
10691SOL    HW234081   3.690   4.567   5.910
10692SOL     OW34082   2.352   5.149   5.716
10692SOL    HW134083   2.270   5.142   5.768
10692SOL    HW234084   2.331   5.095   5.639
10693SOL     OW34085   3.488   5.009   6.289
10693SOL    HW134086   3.566   5.010   6.347
10693SOL    HW234087   3.474   5.105   6.277
10694SOL     OW34088   3.261   4.316   5.635
10694SOL    HW134089   3.220   4.273   5.712
10694SOL    HW234090   3.355   4.313   5.659
10695SOL     OW34091   2.386   3.966   5.911
10695SOL    HW134092   2.432   3.932   5.832
10695SOL    HW234093   2.352   4.051   5.875
10696SOL     OW34094   3.606   4.947   7.167
10696SOL    HW134095   3.686   4.914   7.211
10696SOL    HW234096   3.621   5.042   7.167
10697SOL     OW34097   2.935   5.083   6.918
10697SOL    HW134098   2.856   5.051   6.963
10697SOL    HW234099   3.006   5.033   6.965
10698SOL     OW34100   3.479   5.337   7.233
10698SOL    HW134101   3.467   5.370   7.142
10698SOL    HW234102   3.576   5.333   7.238
10699SOL     OW34103   2.973   4.944   6.679
10699SOL    HW134104   2.927   4.992   6.749
10699SOL    HW234105   2.954   4.999   6.601
10700SOL     OW34106   3.435   4.799   6.672
10700SOL    HW134107   3.476   4.869   6.728
10700SOL    HW234108   3.400   4.853   6.599
10701SOL     OW34109   2.779   3.846   6.961
10701SOL    HW134110   2.818   3.804   6.883
10701SOL    HW234111   2.859   3.869   7.013
10702SOL     OW34112   2.862   4.842   7.317
10702SOL    HW134113   2.771   4.867   7.342
10702SOL    HW234114   2.846   4.764   7.259
10703SOL     OW34115   2.581   4.788   5.932
10703SOL    HW134116   2.566   4.760   6.023
10703SOL    HW234117   2.656   4.729   5.905
10704SOL     OW34118   2.295   4.533   6.847
10704SOL    HW134119   2.362   4.536   6.919
10704SOL    HW234120   2.247   4.451   6.866
10705SOL     OW34121   3.149   4.116   6.849
10705SOL    HW134122   3.169   4.192   6.906
10705SOL    HW234123   3.058   4.133   6.820
10706SOL     OW34124   1.930   5.287   6.920
10706SOL    HW134125   1.922   5.380   6.895
10706SOL    HW234126   2.027   5.277   6.929
10707SOL     OW34127   2.239   4.822   6.091
10707SOL    HW134128   2.235   4.892   6.026
10707SOL    HW234129   2.207   4.745   6.041
10708SOL     OW34130   2.397   4.270   6.435
10708SOL    HW134131   2.423   4.329   6.360
10708SOL    HW234132   2.463   4.293   6.503
10709SOL     OW34133   3.092   5.092   5.974
10709SOL    HW134134   3.141   5.169   6.011
10709SOL    HW234135   3.007   5.100   6.021
10710SOL     OW34136   3.152   5.186   6.766
10710SOL    HW134137   3.221   5.186   6.835
10710SOL    HW234138   3.080   5.137   6.809
10711SOL     OW34139   3.467   4.346   6.058
10711SOL    HW134140   3.414   4.407   6.110
10711SOL    HW234141   3.540   4.405   6.030
10712SOL     OW34142   2.202   5.234   6.906
10712SOL    HW134143   2.185   5.199   6.815
10712SOL    HW234144   2.296   5.256   6.898
10713SOL     OW34145   2.301   4.444   7.210
10713SOL    HW134146   2.356   4.494   7.147
10713SOL    HW234147   2.344   4.358   7.208
10714SOL     OW34148   3.484   4.491   7.255
10714SOL    HW134149   3.396   4.531   7.244
10714SOL    HW234150   3.537   4.547   7.193
10715SOL     OW34151   2.856   3.842   7.339
10715SOL    HW134152   2.911   3.919   7.319
10715SOL    HW234153   2.911   3.770   7.305
10716SOL     OW34154   2.364   3.737   7.340
10716SOL    HW134155   2.323   3.679   7.273
10716SOL    HW234156   2.300   3.810   7.345
10717SOL     OW34157   2.485   4.608   6.653
10717SOL    HW134158   2.487   4.705   6.642
10717SOL    HW234159   2.413   4.595   6.717
10718SOL     OW34160   3.140   4.544   6.601
10718SOL    HW134161   3.169   4.590   6.522
10718SOL    HW234162   3.222   4.498   6.628
10719SOL     OW34163   3.092   4.240   5.848
10719SOL    HW134164   3.104   4.172   5.916
10719SOL    HW234165   3.029   4.299   5.891
10720SOL     OW34166   2.169   3.923   6.834
10720SOL    HW134167   2.134   3.946   6.921
10720SOL    HW234168   2.145   3.828   6.827
10721SOL     OW34169   1.893   5.022   6.870
10721SOL    HW134170   1.924   4.976   6.949
10721SOL    HW234171   1.907   5.117   6.891
10722SOL     OW34172   2.575   4.356   6.629
10722SOL    HW134173   2.658   4.345   6.581
10722SOL    HW234174   2.558   4.453   6.629
10723SOL     OW34175   3.615   4.661   7.434
10723SOL    HW134176   3.570   4.603   7.372
10723SOL    HW234177   3.549   4.672   7.504
10724SOL     OW34178   2.163   3.784   6.193
10724SOL    HW134179   2.141   3.877   6.216
10724SOL    HW234180   2.163   3.743   6.281
10725SOL     OW34181   3.423   4.104   5.954
10725SOL    HW134182   3.471   4.038   6.005
10725SOL    HW234183   3.443   4.188   6.001
10726SOL     OW34184   2.838   5.290   7.293
10726SOL    HW134185   2.825   5.343   7.211
10726SOL    HW234186   2.870   5.206   7.256
10727SOL     OW34187   2.216   4.617   7.392
10727SOL    HW134188   2.297   4.651   7.432
10727SOL    HW234189   2.249   4.543   7.336
10728SOL     OW34190   3.381   3.991   5.709
10728SOL    HW134191   3.314   3.930   5.741
10728SOL    HW234192   3.404   4.040   5.790
10729SOL     OW34193   3.133   4.558   5.607
10729SOL    HW134194   3.180   4.473   5.620
10729SOL    HW234195   3.171   4.587   5.522
10730SOL     OW34196   2.937   5.086   6.435
10730SOL    HW134197   2.944   5.009   6.375
10730SOL    HW234198   3.006   5.146   6.402
10731SOL     OW34199   2.144   4.545   6.590
10731SOL    HW134200   2.231   4.548   6.549
10731SOL    HW234201   2.140   4.452   6.617
10732SOL     OW34202   2.191   4.262   6.601
10732SOL    HW134203   2.157   4.172   6.583
10732SOL    HW234204   2.262   4.269   6.533
10733SOL     OW34205   3.009   4.097   7.279
10733SOL    HW134206   2.967   4.146   7.353
10733SOL    HW234207   3.096   4.140   7.275
10734SOL     OW34208   3.027   3.925   7.071
10734SOL    HW134209   3.024   3.986   7.147
10734SOL    HW234210   3.079   3.976   7.007
10735SOL     OW34211   1.865   5.043   5.771
10735SOL    HW134212   1.770   5.053   5.745
10735SOL    HW234213   1.865   4.955   5.814
10736SOL     OW34214   1.957   5.506   6.530
10736SOL    HW134215   1.929   5.433   6.470
10736SOL    HW234216   2.047   5.524   6.497
10737SOL     OW34217   2.342   5.311   6.512
10737SOL    HW134218   2.408   5.382   6.524
10737SOL    HW234219   2.392   5.247   6.459
10738SOL     OW34220   2.833   4.460   6.809
10738SOL    HW134221   2.878   4.450   6.895
10738SOL    HW234222   2.743   4.475   6.837
10739SOL     OW34223   1.878   4.240   6.703
10739SOL    HW134224   1.951   4.234   6.640
10739SOL    HW234225   1.923   4.261   6.785
10740SOL     OW34226   3.252   4.639   7.216
10740SOL    HW134227   3.273   4.734   7.214
10740SOL    HW234228   3.256   4.616   7.121
10741SOL     OW34229   2.661   4.289   5.980
10741SOL    HW134230   2.677   4.225   5.907
10741SOL    HW234231   2.586   4.340   5.945
10742SOL     OW34232   3.514   4.348   6.783
10742SOL    HW134233   3.495   4.282   6.851
10742SOL    HW234234   3.596   4.313   6.743
10743SOL     OW34235   2.116   5.269   7.306
10743SOL    HW134236   2.098   5.338   7.371
10743SOL    HW234237   2.122   5.189   7.362
10744SOL     OW34238   2.545   4.202   6.852
10744SOL    HW134239   2.498   4.126   6.815
10744SOL    HW234240   2.546   4.264   6.777
10745SOL     OW34241   2.790   5.422   7.064
10745SOL    HW134242   2.773   5.389   6.975
10745SOL    HW234243   2.789   5.519   7.053
10746SOL     OW34244   2.304   4.192   5.785
10746SOL    HW134245   2.371   4.262   5.792
10746SOL    HW234246   2.222   4.245   5.788
10747SOL     OW34247   1.971   4.851   7.061
10747SOL    HW134248   1.981   4.799   7.144
10747SOL    HW234249   1.993   4.783   6.993
10748SOL     OW34250   3.176   4.761   6.825
10748SOL    HW134251   3.229   4.737   6.748
10748SOL    HW234252   3.124   4.834   6.789
10749SOL     OW34253   3.170   4.580   5.875
10749SOL    HW134254   3.092   4.538   5.915
10749SOL    HW234255   3.151   4.576   5.779
10750SOL     OW34256   3.607   5.484   6.737
10750SOL    HW134257   3.654   5.523   6.661
10750SOL    HW234258   3.598   5.390   6.711
10751SOL     OW34259   3.100   5.446   6.688
10751SOL    HW134260   3.186   5.469   6.649
10751SOL    HW234261   3.113   5.352   6.710
10752SOL     OW34262   1.974   4.944   6.624
10752SOL    HW134263   1.946   4.974   6.713
10752SOL    HW234264   1.896   4.963   6.571
10753SOL     OW34265   2.559   5.368   7.326
10753SOL    HW134266   2.512   5.452   7.316
10753SOL    HW234267   2.648   5.390   7.295
10754SOL     OW34268   3.533   3.866   6.077
10754SOL    HW134269   3.616   3.861   6.027
10754SOL    HW234270   3.534   3.782   6.127
10755SOL     OW34271   3.231   5.314   6.055
10755SOL    HW134272   3.295   5.347   5.988
10755SOL    HW234273   3.192   5.397   6.088
10756SOL     OW34274   2.002   5.518   7.416
10756SOL    HW134275   1.973   5.448   7.477
10756SOL    HW234276   2.038   5.585   7.476
10757SOL     OW34277   3.128   4.662   6.267
10757SOL    HW134278   3.207   4.604   6.266
10757SOL    HW234279   3.158   4.737   6.210
10758SOL     OW34280   2.679   4.984   7.008
10758SOL    HW134281   2.656   5.033   7.090
10758SOL    HW234282   2.600   5.000   6.955
10759SOL     OW34283   2.535   5.343   5.754
10759SOL    HW134284   2.561   5.348   5.661
10759SOL    HW234285   2.473   5.266   5.752
10760SOL     OW34286   3.467   5.442   6.975
10760SOL    HW134287   3.523   5.460   6.897
10760SOL    HW234288   3.458   5.533   7.012
10761SOL     OW34289   3.704   3.889   6.558
10761SOL    HW134290   3.730   3.803   6.519
10761SOL    HW234291   3.618   3.907   6.514
10762SOL     OW34292   2.116   4.030   6.286
10762SOL    HW134293   2.032   4.077   6.267
10762SOL    HW234294   2.125   4.043   6.381
10763SOL     OW34295   3.049   5.327   5.592
10763SOL    HW134296   3.067   5.245   5.641
10763SOL    HW234297   3.102   5.316   5.512
10764SOL     OW34298   2.692   4.721   6.947
10764SOL    HW134299   2.728   4.738   6.859
10764SOL    HW234300   2.689   4.812   6.985
10765SOL     OW34301   2.787   4.644   5.858
10765SOL    HW134302   2.863   4.687   5.815
10765SOL    HW234303   2.823   4.561   5.892
10766SOL     OW34304   3.378   5.318   5.629
10766SOL    HW134305   3.297   5.368   5.629
10766SOL    HW234306   3.411   5.327   5.537
10767SOL     OW34307   2.206   4.995   7.070
10767SOL    HW134308   2.200   5.071   7.009
10767SOL    HW234309   2.121   4.951   7.060
10768SOL     OW34310   3.477   5.006   6.872
10768SOL    HW134311   3.525   4.981   6.953
10768SOL    HW234312   3.412   5.071   6.907
10769SOL     OW34313   2.917   4.857   6.299
10769SOL    HW134314   2.851   4.800   6.343
10769SOL    HW234315   2.982   4.793   6.268
10770SOL     OW34316   2.886   3.952   6.572
10770SOL    HW134317   2.881   3.909   6.484
10770SOL    HW234318   2.890   3.875   6.631
10771SOL     OW34319   2.482   5.207   6.084
10771SOL    HW134320   2.524   5.173   6.003
10771SOL    HW234321   2.396   5.237   6.052
10772SOL     OW34322   3.572   4.098   6.963
10772SOL    HW134323   3.636   4.172   6.964
10772SOL    HW234324   3.618   4.034   6.904
10773SOL     OW34325   2.110   5.114   5.859
10773SOL    HW134326   2.015   5.092   5.851
10773SOL    HW234327   2.114   5.138   5.954
10774SOL     OW34328   1.989   4.724   7.291
10774SOL    HW134329   1.916   4.715   7.356
10774SOL    HW234330   2.067   4.693   7.341
10775SOL     OW34331   2.537   3.919   7.062
10775SOL    HW134332   2.623   3.903   7.019
10775SOL    HW234333   2.565   3.953   7.150
10776SOL     OW34334   1.955   4.084   5.630
10776SOL    HW134335   1.866   4.071   5.596
10776SOL    HW234336   1.990   4.152   5.569
10777SOL     OW34337   3.311   4.572   6.960
10777SOL    HW134338   3.258   4.637   6.909
10777SOL    HW234339   3.402   4.601   6.940
10778SOL     OW34340   1.906   3.896   5.885
10778SOL    HW134341   1.898   3.984   5.846
10778SOL    HW234342   1.989   3.865   5.845
10779SOL     OW34343   3.061   5.074   5.701
10779SOL    HW134344   3.002   4.999   5.714
10779SOL    HW234345   3.093   5.088   5.792
10780SOL     OW34346   2.489   4.538   7.027
10780SOL    HW134347   2.545   4.616   7.015
10780SOL    HW234348   2.557   4.469   7.036
10781SOL     OW34349   3.346   5.469   6.557
10781SOL    HW134350   3.387   5.513   6.481
10781SOL    HW234351   3.422   5.460   6.616
10782SOL     OW34352   2.577   4.258   7.282
10782SOL    HW134353   2.627   4.320   7.337
10782SOL    HW234354   2.610   4.170   7.307
10783SOL     OW34355   3.325   4.903   7.219
10783SOL    HW134356   3.315   4.911   7.316
10783SOL    HW234357   3.421   4.918   7.209
10784SOL     OW34358   2.237   5.452   7.149
10784SOL    HW134359   2.150   5.494   7.133
10784SOL    HW234360   2.207   5.367   7.188
10785SOL     OW34361   3.566   4.616   6.828
10785SOL    HW134362   3.562   4.527   6.787
10785SOL    HW234363   3.534   4.674   6.757
10786SOL     OW34364   3.058   4.031   6.070
10786SOL    HW134365   3.135   3.975   6.051
10786SOL    HW234366   3.093   4.091   6.139
10787SOL     OW34367   2.455   4.465   6.241
10787SOL    HW134368   2.478   4.560   6.238
10787SOL    HW234369   2.383   4.460   6.176
10788SOL     OW34370   3.629   4.089   7.227
10788SOL    HW134371   3.601   4.103   7.134
10788SOL    HW234372   3.550   4.048   7.265
10789SOL     OW34373   3.603   4.667   7.097
10789SOL    HW134374   3.620   4.762   7.103
10789SOL    HW234375   3.615   4.651   7.001
10790SOL     OW34376   2.688   5.101   5.622
10790SOL    HW134377   2.672   5.093   5.718
10790SOL    HW234378   2.781   5.125   5.618
10791SOL     OW34379   2.502   5.529   6.506
10791SOL    HW134380   2.485   5.624   6.494
10791SOL    HW234381   2.596   5.525   6.524
10792SOL     OW34382   2.732   4.688   6.441
10792SOL    HW134383   2.719   4.616   6.503
10792SOL    HW234384   2.707   4.764   6.496
10793SOL     OW34385   2.974   4.758   5.690
10793SOL    HW134386   2.935   4.788   5.606
10793SOL    HW234387   3.029   4.683   5.658
10794SOL     OW34388   3.680   5.320   6.450
10794SOL    HW134389   3.659   5.345   6.360
10794SOL    HW234390   3.747   5.251   6.440
10795SOL     OW34391   2.106   5.039   7.448
10795SOL    HW134392   2.030   4.985   7.426
10795SOL    HW234393   2.094   5.053   7.544
10796SOL     OW34394   1.944   4.938   6.235
10796SOL    HW134395   1.945   4.926   6.330
10796SOL    HW234396   2.038   4.932   6.212
10797SOL     OW34397   2.550   5.120   7.207
10797SOL    HW134398   2.469   5.074   7.236
10797SOL    HW234399   2.537   5.208   7.246
10798SOL     OW34400   3.673   3.891   6.816
10798SOL    HW134401   3.700   3.800   6.832
10798SOL    HW234402   3.685   3.896   6.718
10799SOL     OW34403   2.300   4.153   6.124
10799SOL    HW134404   2.326   4.082   6.064
10799SOL    HW234405   2.243   4.108   6.189
10800SOL     OW34406   3.524   5.230   6.713
10800SOL    HW134407   3.475   5.210   6.632
10800SOL    HW234408   3.529   5.143   6.756
10801SOL     OW34409   2.179   4.258   6.879
10801SOL    HW134410   2.256   4.223   6.928
10801SOL    HW234411   2.203   4.243   6.786
10802SOL     OW34412   2.684   5.311   6.266
10802SOL    HW134413   2.657   5.345   6.179
10802SOL    HW234414   2.604   5.262   6.291
10803SOL     OW34415   3.287   3.961   6.686
10803SOL    HW134416   3.341   3.895   6.731
10803SOL    HW234417   3.247   4.012   6.760
10804SOL     OW34418   2.882   3.731   6.731
10804SOL    HW134419   2.826   3.656   6.711
10804SOL    HW234420   2.972   3.691   6.729
10805SOL     OW34421   2.655   5.061   5.899
10805SOL    HW134422   2.620   4.970   5.907
10805SOL    HW234423   2.723   5.061   5.968
10806SOL     OW34424   2.465   5.274   6.858
10806SOL    HW134425   2.463   5.360   6.904
10806SOL    HW234426   2.558   5.273   6.831
10807SOL     OW34427   3.186   3.764   5.761
10807SOL    HW134428   3.191   3.705   5.685
10807SOL    HW234429   3.098   3.738   5.797
10808SOL     OW34430   3.147   4.197   6.270
10808SOL    HW134431   3.106   4.283   6.289
10808SOL    HW234432   3.138   4.153   6.357
10809SOL     OW34433   3.465   3.932   6.455
10809SOL    HW134434   3.394   3.949   6.519
10809SOL    HW234435   3.462   4.010   6.397
10810SOL     OW34436   1.909   4.798   5.884
10810SOL    HW134437   2.001   4.791   5.856
10810SOL    HW234438   1.894   4.707   5.917
10811SOL     OW34439   2.759   5.368   5.934
10811SOL    HW134440   2.680   5.352   5.880
10811SOL    HW234441   2.735   5.448   5.985
10812SOL     OW34442   2.093   4.358   7.591
10812SOL    HW134443   2.007   4.352   7.635
10812SOL    HW234444   2.073   4.409   7.512
10813SOL     OW34445   2.083   3.999   8.425
10813SOL    HW134446   2.105   3.982   8.518
10813SOL    HW234447   1.995   3.957   8.419
10814SOL     OW34448   1.860   4.121   8.078
10814SOL    HW134449   1.773   4.137   8.117
10814SOL    HW234450   1.844   4.039   8.029
10815SOL     OW34451   2.432   5.011   8.646
10815SOL    HW134452   2.344   5.006   8.607
10815SOL    HW234453   2.439   5.104   8.671
10816SOL     OW34454   3.409   5.264   8.163
10816SOL    HW134455   3.370   5.236   8.248
10816SOL    HW234456   3.334   5.262   8.101
10817SOL     OW34457   2.988   4.404   8.156
10817SOL    HW134458   3.021   4.492   8.129
10817SOL    HW234459   2.953   4.423   8.244
10818SOL     OW34460   3.630   4.319   7.682
10818SOL    HW134461   3.611   4.326   7.587
10818SOL    HW234462   3.586   4.236   7.705
10819SOL     OW34463   2.631   4.893   8.497
10819SOL    HW134464   2.557   4.930   8.549
10819SOL    HW234465   2.651   4.967   8.437
10820SOL     OW34466   2.752   4.467   9.247
10820SOL    HW134467   2.723   4.531   9.313
10820SOL    HW234468   2.775   4.525   9.171
10821SOL     OW34469   2.554   4.750   8.109
10821SOL    HW134470   2.617   4.723   8.179
10821SOL    HW234471   2.487   4.800   8.159
10822SOL     OW34472   2.552   4.878   9.257
10822SOL    HW134473   2.595   4.962   9.283
10822SOL    HW234474   2.465   4.908   9.225
10823SOL     OW34475   2.181   5.152   8.522
10823SOL    HW134476   2.112   5.105   8.472
10823SOL    HW234477   2.230   5.202   8.454
10824SOL     OW34478   3.334   5.226   8.826
10824SOL    HW134479   3.388   5.307   8.839
10824SOL    HW234480   3.265   5.238   8.893
10825SOL     OW34481   2.295   4.120   8.978
10825SOL    HW134482   2.373   4.065   8.962
10825SOL    HW234483   2.221   4.063   8.951
10826SOL     OW34484   3.487   4.177   8.192
10826SOL    HW134485   3.417   4.207   8.132
10826SOL    HW234486   3.472   4.232   8.269
10827SOL     OW34487   2.090   5.421   7.928
10827SOL    HW134488   2.111   5.502   7.979
10827SOL    HW234489   2.145   5.432   7.849
10828SOL     OW34490   2.989   5.072   9.113
10828SOL    HW134491   3.029   5.074   9.201
10828SOL    HW234492   2.946   4.985   9.115
10829SOL     OW34493   2.106   5.146   7.980
10829SOL    HW134494   2.108   5.244   7.977
10829SOL    HW234495   2.031   5.131   8.039
10830SOL     OW34496   2.136   4.811   8.353
10830SOL    HW134497   2.133   4.739   8.418
10830SOL    HW234498   2.078   4.877   8.394
10831SOL     OW34499   2.454   5.522   8.853
10831SOL    HW134500   2.385   5.495   8.916
10831SOL    HW234501   2.481   5.610   8.887
10832SOL     OW34502   2.429   4.718   7.558
10832SOL    HW134503   2.482   4.767   7.492
10832SOL    HW234504   2.471   4.748   7.641
10833SOL     OW34505   3.474   3.836   8.949
10833SOL    HW134506   3.462   3.915   8.894
10833SOL    HW234507   3.480   3.874   9.038
10834SOL     OW34508   1.977   4.370   8.009
10834SOL    HW134509   1.945   4.279   8.025
10834SOL    HW234510   1.970   4.411   8.098
10835SOL     OW34511   1.933   5.310   7.568
10835SOL    HW134512   1.909   5.218   7.585
10835SOL    HW234513   1.896   5.357   7.645
10836SOL     OW34514   3.546   4.626   8.088
10836SOL    HW134515   3.617   4.588   8.034
10836SOL    HW234516   3.514   4.695   8.028
10837SOL     OW34517   3.505   4.848   7.898
10837SOL    HW134518   3.592   4.845   7.855
10837SOL    HW234519   3.518   4.916   7.966
10838SOL     OW34520   1.987   4.471   9.032
10838SOL    HW134521   2.079   4.501   9.040
10838SOL    HW234522   1.940   4.546   9.072
10839SOL     OW34523   2.455   5.136   8.205
10839SOL    HW134524   2.416   5.046   8.213
10839SOL    HW234525   2.447   5.150   8.109
10840SOL     OW34526   3.150   4.957   8.871
10840SOL    HW134527   3.184   4.883   8.817
10840SOL    HW234528   3.201   4.945   8.954
10841SOL     OW34529   2.694   3.725   7.938
10841SOL    HW134530   2.726   3.817   7.934
10841SOL    HW234531   2.599   3.738   7.950
10842SOL     OW34532   2.047   4.700   8.706
10842SOL    HW134533   2.136   4.664   8.699
10842SOL    HW234534   1.993   4.633   8.662
10843SOL     OW34535   3.416   4.678   7.618
10843SOL    HW134536   3.335   4.632   7.646
10843SOL    HW234537   3.453   4.709   7.703
10844SOL     OW34538   3.020   5.533   9.058
10844SOL    HW134539   3.038   5.601   8.991
10844SOL    HW234540   3.058   5.452   9.019
10845SOL     OW34541   2.191   3.951   9.251
10845SOL    HW134542   2.249   4.028   9.252
10845SOL    HW234543   2.110   3.987   9.292
10846SOL     OW34544   3.336   5.153   8.412
10846SOL    HW134545   3.273   5.171   8.484
10846SOL    HW234546   3.306   5.064   8.382
10847SOL     OW34547   3.530   5.454   8.026
10847SOL    HW134548   3.497   5.418   7.943
10847SOL    HW234549   3.499   5.386   8.090
10848SOL     OW34550   2.438   4.435   7.715
10848SOL    HW134551   2.440   4.526   7.681
10848SOL    HW234552   2.368   4.440   7.783
10849SOL     OW34553   3.139   4.052   8.352
10849SOL    HW134554   3.048   4.026   8.378
10849SOL    HW234555   3.192   4.016   8.425
10850SOL     OW34556   3.437   5.368   7.759
10850SOL    HW134557   3.533   5.369   7.754
10850SOL    HW234558   3.415   5.365   7.664
10851SOL     OW34559   2.670   4.350   8.904
10851SOL    HW134560   2.647   4.315   8.993
10851SOL    HW234561   2.622   4.288   8.846
10852SOL     OW34562   3.258   4.204   9.122
10852SOL    HW134563   3.267   4.262   9.199
10852SOL    HW234564   3.317   4.129   9.145
10853SOL     OW34565   2.829   4.611   9.029
10853SOL    HW134566   2.869   4.531   8.991
10853SOL    HW234567   2.781   4.647   8.952
10854SOL     OW34568   2.833   4.130   8.686
10854SOL    HW134569   2.741   4.145   8.714
10854SOL    HW234570   2.823   4.080   8.604
10855SOL     OW34571   2.901   4.403   7.859
10855SOL    HW134572   2.910   4.426   7.953
10855SOL    HW234573   2.814   4.357   7.857
10856SOL     OW34574   1.970   4.526   8.229
10856SOL    HW134575   2.036   4.529   8.300
10856SOL    HW234576   1.925   4.611   8.239
10857SOL     OW34577   1.970   5.567   9.015
10857SOL    HW134578   1.981   5.549   9.111
10857SOL    HW234579   1.875   5.556   9.004
10858SOL     OW34580   2.745   4.094   7.659
10858SOL    HW134581   2.788   4.153   7.595
10858SOL    HW234582   2.769   4.008   7.623
10859SOL     OW34583   3.579   4.315   9.286
10859SOL    HW134584   3.545   4.391   9.236
10859SOL    HW234585   3.602   4.254   9.214
10860SOL     OW34586   3.226   4.867   8.009
10860SOL    HW134587   3.310   4.864   7.961
10860SOL    HW234588   3.175   4.929   7.954
10861SOL     OW34589   2.418   3.928   8.347
10861SOL    HW134590   2.426   3.941   8.444
10861SOL    HW234591   2.407   4.017   8.313
10862SOL     OW34592   2.851   5.164   7.943
10862SOL    HW134593   2.823   5.233   7.880
10862SOL    HW234594   2.863   5.214   8.025
10863SOL     OW34595   2.205   5.537   8.309
10863SOL    HW134596   2.256   5.455   8.319
10863SOL    HW234597   2.271   5.605   8.332
10864SOL     OW34598   3.681   4.765   8.334
10864SOL    HW134599   3.628   4.758   8.253
10864SOL    HW234600   3.614   4.762   8.404
10865SOL     OW34601   3.086   5.285   8.948
10865SOL    HW134602   3.062   5.222   9.017
10865SOL    HW234603   3.044   5.246   8.871
10866SOL     OW34604   2.175   4.687   7.705
10866SOL    HW134605   2.244   4.714   7.643
10866SOL    HW234606   2.151   4.599   7.672
10867SOL     OW34607   3.334   4.483   8.165
10867SOL    HW134608   3.341   4.458   8.258
10867SOL    HW234609   3.416   4.534   8.152
10868SOL     OW34610   2.319   4.997   9.174
10868SOL    HW134611   2.279   4.999   9.084
10868SOL    HW234612   2.238   5.006   9.229
10869SOL     OW34613   2.955   5.499   7.695
10869SOL    HW134614   2.885   5.447   7.739
10869SOL    HW234615   2.964   5.454   7.610
10870SOL     OW34616   2.034   4.010   8.940
10870SOL    HW134617   1.964   4.071   8.968
10870SOL    HW234618   2.014   3.930   8.991
10871SOL     OW34619   3.497   5.086   7.534
10871SOL    HW134620   3.461   5.171   7.507
10871SOL    HW234621   3.432   5.021   7.501
10872SOL     OW34622   2.314   5.466   7.765
10872SOL    HW134623   2.361   5.514   7.836
10872SOL    HW234624   2.386   5.437   7.707
10873SOL     OW34625   3.256   3.847   7.890
10873SOL    HW134626   3.252   3.800   7.805
10873SOL    HW234627   3.352   3.855   7.905
10874SOL     OW34628   2.102   5.516   8.673
10874SOL    HW134629   2.160   5.449   8.710
10874SOL    HW234630   2.088   5.485   8.582
10875SOL     OW34631   2.817   5.428   8.332
10875SOL    HW134632   2.899   5.380   8.345
10875SOL    HW234633   2.772   5.374   8.264
10876SOL     OW34634   2.246   4.411   7.925
10876SOL    HW134635   2.272   4.321   7.953
10876SOL    HW234636   2.150   4.407   7.940
10877SOL     OW34637   3.402   3.981   9.177
10877SOL    HW134638   3.404   3.982   9.276
10877SOL    HW234639   3.339   3.909   9.161
10878SOL     OW34640   2.493   3.862   7.534
10878SOL    HW134641   2.559   3.804   7.571
10878SOL    HW234642   2.447   3.803   7.469
10879SOL     OW34643   2.629   3.983   9.175
10879SOL    HW134644   2.709   3.928   9.182
10879SOL    HW234645   2.583   3.963   9.259
10880SOL     OW34646   2.748   5.264   8.645
10880SOL    HW134647   2.740   5.240   8.551
10880SOL    HW234648   2.804   5.194   8.681
10881SOL     OW34649   3.204   4.323   8.869
10881SOL    HW134650   3.239   4.289   8.954
10881SOL    HW234651   3.252   4.407   8.857
10882SOL     OW34652   2.670   5.136   8.371
10882SOL    HW134653   2.754   5.123   8.324
10882SOL    HW234654   2.604   5.136   8.299
10883SOL     OW34655   2.811   4.255   8.358
10883SOL    HW134656   2.782   4.242   8.265
10883SOL    HW234657   2.834   4.164   8.382
10884SOL     OW34658   2.421   3.772   7.948
10884SOL    HW134659   2.342   3.777   8.004
10884SOL    HW234660   2.407   3.850   7.889
10885SOL     OW34661   3.305   4.897   7.484
10885SOL    HW134662   3.333   4.817   7.533
10885SOL    HW234663   3.215   4.912   7.515
10886SOL     OW34664   2.159   3.757   7.627
10886SOL    HW134665   2.219   3.832   7.622
10886SOL    HW234666   2.214   3.691   7.672
10887SOL     OW34667   2.792   3.977   7.939
10887SOL    HW134668   2.775   4.025   7.856
10887SOL    HW234669   2.889   3.990   7.948
10888SOL     OW34670   2.954   4.403   8.919
10888SOL    HW134671   2.902   4.321   8.918
10888SOL    HW234672   3.046   4.373   8.907
10889SOL     OW34673   3.106   5.304   8.224
10889SOL    HW134674   3.106   5.366   8.149
10889SOL    HW234675   3.175   5.338   8.280
10890SOL     OW34676   2.337   4.890   8.193
10890SOL    HW134677   2.262   4.857   8.247
10890SOL    HW234678   2.304   4.869   8.102
10891SOL     OW34679   3.136   5.536   8.043
10891SOL    HW134680   3.185   5.600   7.987
10891SOL    HW234681   3.101   5.596   8.110
10892SOL     OW34682   2.918   4.254   7.482
10892SOL    HW134683   2.875   4.339   7.463
10892SOL    HW234684   2.989   4.278   7.544
10893SOL     OW34685   1.922   4.283   8.851
10893SOL    HW134686   2.015   4.264   8.832
10893SOL    HW234687   1.929   4.362   8.908
10894SOL     OW34688   2.429   3.958   8.620
10894SOL    HW134689   2.473   3.886   8.667
10894SOL    HW234690   2.336   3.945   8.647
10895SOL     OW34691   2.737   4.186   8.117
10895SOL    HW134692   2.689   4.229   8.046
10895SOL    HW234693   2.754   4.098   8.079
10896SOL     OW34694   2.884   3.795   8.218
10896SOL    HW134695   2.844   3.777   8.132
10896SOL    HW234696   2.860   3.715   8.269
10897SOL     OW34697   3.277   4.902   8.334
10897SOL    HW134698   3.211   4.836   8.358
10897SOL    HW234699   3.277   4.896   8.237
10898SOL     OW34700   3.341   4.304   8.434
10898SOL    HW134701   3.279   4.231   8.445
10898SOL    HW234702   3.395   4.299   8.515
10899SOL     OW34703   3.698   4.542   7.849
10899SOL    HW134704   3.756   4.488   7.907
10899SOL    HW234705   3.691   4.484   7.772
10900SOL     OW34706   2.355   5.143   7.569
10900SOL    HW134707   2.275   5.134   7.623
10900SOL    HW234708   2.338   5.082   7.497
10901SOL     OW34709   3.543   5.018   8.104
10901SOL    HW134710   3.640   5.016   8.116
10901SOL    HW234711   3.516   5.104   8.137
10902SOL     OW34712   3.254   4.320   7.519
10902SOL    HW134713   3.212   4.289   7.602
10902SOL    HW234714   3.346   4.294   7.532
10903SOL     OW34715   2.385   3.957   7.763
10903SOL    HW134716   2.432   3.929   7.683
10903SOL    HW234717   2.355   4.046   7.736
10904SOL     OW34718   3.595   4.959   9.028
10904SOL    HW134719   3.681   4.915   9.037
10904SOL    HW234720   3.623   5.052   9.039
10905SOL     OW34721   2.930   5.085   8.784
10905SOL    HW134722   2.850   5.053   8.830
10905SOL    HW234723   3.000   5.036   8.831
10906SOL     OW34724   3.461   5.322   9.089
10906SOL    HW134725   3.466   5.367   9.003
10906SOL    HW234726   3.546   5.275   9.091
10907SOL     OW34727   2.976   4.944   8.538
10907SOL    HW134728   2.926   4.981   8.611
10907SOL    HW234729   2.945   4.994   8.462
10908SOL     OW34730   3.471   4.819   8.536
10908SOL    HW134731   3.474   4.885   8.608
10908SOL    HW234732   3.411   4.864   8.475
10909SOL     OW34733   2.786   3.823   8.846
10909SOL    HW134734   2.817   3.800   8.755
10909SOL    HW234735   2.865   3.865   8.884
10910SOL     OW34736   2.859   4.840   9.189
10910SOL    HW134737   2.769   4.872   9.205
10910SOL    HW234738   2.846   4.765   9.128
10911SOL     OW34739   2.560   4.776   7.792
10911SOL    HW134740   2.552   4.760   7.887
10911SOL    HW234741   2.639   4.721   7.770
10912SOL     OW34742   2.282   4.533   8.716
10912SOL    HW134743   2.356   4.534   8.781
10912SOL    HW234744   2.240   4.448   8.734
10913SOL     OW34745   3.141   4.110   8.714
10913SOL    HW134746   3.166   4.189   8.767
10913SOL    HW234747   3.049   4.129   8.690
10914SOL     OW34748   1.939   5.292   8.786
10914SOL    HW134749   1.941   5.385   8.758
10914SOL    HW234750   2.034   5.269   8.788
10915SOL     OW34751   2.244   4.830   7.953
10915SOL    HW134752   2.257   4.896   7.885
10915SOL    HW234753   2.230   4.750   7.901
10916SOL     OW34754   2.412   4.264   8.305
10916SOL    HW134755   2.435   4.329   8.235
10916SOL    HW234756   2.480   4.284   8.372
10917SOL     OW34757   3.092   5.065   7.835
10917SOL    HW134758   3.140   5.139   7.875
10917SOL    HW234759   3.001   5.080   7.868
10918SOL     OW34760   3.158   5.193   8.621
10918SOL    HW134761   3.218   5.190   8.697
10918SOL    HW234762   3.085   5.135   8.649
10919SOL     OW34763   3.438   4.326   7.914
10919SOL    HW134764   3.388   4.382   7.975
10919SOL    HW234765   3.476   4.389   7.852
10920SOL     OW34766   2.202   5.225   8.767
10920SOL    HW134767   2.192   5.194   8.674
10920SOL    HW234768   2.296   5.252   8.764
10921SOL     OW34769   2.298   4.448   9.076
10921SOL    HW134770   2.352   4.496   9.011
10921SOL    HW234771   2.335   4.359   9.069
10922SOL     OW34772   3.484   4.497   9.121
10922SOL    HW134773   3.397   4.539   9.130
10922SOL    HW234774   3.525   4.549   9.049
10923SOL     OW34775   2.852   3.835   9.196
10923SOL    HW134776   2.919   3.905   9.192
10923SOL    HW234777   2.902   3.761   9.158
10924SOL     OW34778   2.367   3.740   9.202
10924SOL    HW134779   2.322   3.684   9.136
10924SOL    HW234780   2.302   3.811   9.214
10925SOL     OW34781   2.452   4.610   8.503
10925SOL    HW134782   2.475   4.704   8.506
10925SOL    HW234783   2.391   4.599   8.578
10926SOL     OW34784   3.225   4.579   8.466
10926SOL    HW134785   3.137   4.549   8.439
10926SOL    HW234786   3.272   4.496   8.478
10927SOL     OW34787   3.084   4.243   7.725
10927SOL    HW134788   3.090   4.169   7.787
10927SOL    HW234789   3.027   4.305   7.774
10928SOL     OW34790   2.157   3.931   8.693
10928SOL    HW134791   2.110   3.959   8.773
10928SOL    HW234792   2.134   3.836   8.690
10929SOL     OW34793   1.887   5.026   8.729
10929SOL    HW134794   1.916   4.969   8.803
10929SOL    HW234795   1.904   5.116   8.763
10930SOL     OW34796   2.590   4.375   8.500
10930SOL    HW134797   2.670   4.374   8.445
10930SOL    HW234798   2.554   4.466   8.488
10931SOL     OW34799   3.619   4.670   9.287
10931SOL    HW134800   3.573   4.607   9.230
10931SOL    HW234801   3.556   4.680   9.359
10932SOL     OW34802   2.164   3.786   8.059
10932SOL    HW134803   2.130   3.875   8.081
10932SOL    HW234804   2.169   3.744   8.147
10933SOL     OW34805   3.466   4.096   7.786
10933SOL    HW134806   3.496   4.025   7.846
10933SOL    HW234807   3.457   4.173   7.847
10934SOL     OW34808   2.925   4.484   8.422
10934SOL    HW134809   2.901   4.500   8.515
10934SOL    HW234810   2.896   4.391   8.411
10935SOL     OW34811   2.840   5.291   9.152
10935SOL    HW134812   2.829   5.340   9.068
10935SOL    HW234813   2.872   5.204   9.121
10936SOL     OW34814   3.713   5.213   9.050
10936SOL    HW134815   3.735   5.241   8.959
10936SOL    HW234816   3.788   5.248   9.101
10937SOL     OW34817   2.210   4.624   9.246
10937SOL    HW134818   2.291   4.645   9.294
10937SOL    HW234819   2.237   4.547   9.192
10938SOL     OW34820   3.365   3.978   7.568
10938SOL    HW134821   3.293   3.925   7.604
10938SOL    HW234822   3.405   4.019   7.647
10939SOL     OW34823   3.175   4.582   7.468
10939SOL    HW134824   3.205   4.490   7.481
10939SOL    HW234825   3.207   4.602   7.377
10940SOL     OW34826   2.927   5.093   8.289
10940SOL    HW134827   2.940   5.011   8.236
10940SOL    HW234828   3.003   5.149   8.263
10941SOL     OW34829   2.143   4.541   8.450
10941SOL    HW134830   2.234   4.555   8.420
10941SOL    HW234831   2.146   4.446   8.472
10942SOL     OW34832   2.189   4.264   8.455
10942SOL    HW134833   2.155   4.175   8.434
10942SOL    HW234834   2.261   4.272   8.389
10943SOL     OW34835   3.015   4.090   9.144
10943SOL    HW134836   2.969   4.144   9.211
10943SOL    HW234837   3.103   4.133   9.142
10944SOL     OW34838   3.031   3.921   8.935
10944SOL    HW134839   3.025   3.985   9.009
10944SOL    HW234840   3.073   3.975   8.867
10945SOL     OW34841   1.861   5.041   7.640
10945SOL    HW134842   1.771   5.053   7.603
10945SOL    HW234843   1.858   4.950   7.676
10946SOL     OW34844   1.957   5.504   8.395
10946SOL    HW134845   1.931   5.436   8.330
10946SOL    HW234846   2.048   5.525   8.365
10947SOL     OW34847   2.340   5.304   8.374
10947SOL    HW134848   2.411   5.369   8.389
10947SOL    HW234849   2.385   5.241   8.315
10948SOL     OW34850   2.837   4.493   8.685
10948SOL    HW134851   2.887   4.463   8.763
10948SOL    HW234852   2.749   4.461   8.706
10949SOL     OW34853   1.885   4.248   8.563
10949SOL    HW134854   1.962   4.235   8.507
10949SOL    HW234855   1.924   4.268   8.649
10950SOL     OW34856   2.075   4.234   9.159
10950SOL    HW134857   2.135   4.194   9.093
10950SOL    HW234858   2.036   4.309   9.110
10951SOL     OW34859   3.252   4.644   9.105
10951SOL    HW134860   3.275   4.739   9.104
10951SOL    HW234861   3.249   4.623   9.010
10952SOL     OW34862   2.656   4.297   7.828
10952SOL    HW134863   2.668   4.227   7.761
10952SOL    HW234864   2.576   4.342   7.798
10953SOL     OW34865   3.500   4.337   8.656
10953SOL    HW134866   3.479   4.269   8.721
10953SOL    HW234867   3.584   4.305   8.619
10954SOL     OW34868   2.112   5.265   9.171
10954SOL    HW134869   2.100   5.333   9.239
10954SOL    HW234870   2.114   5.183   9.224
10955SOL     OW34871   2.546   4.201   8.710
10955SOL    HW134872   2.498   4.124   8.673
10955SOL    HW234873   2.548   4.263   8.635
10956SOL     OW34874   2.775   5.417   8.921
10956SOL    HW134875   2.776   5.386   8.830
10956SOL    HW234876   2.780   5.514   8.911
10957SOL     OW34877   2.306   4.190   7.653
10957SOL    HW134878   2.368   4.264   7.656
10957SOL    HW234879   2.221   4.237   7.651
10958SOL     OW34880   1.971   4.854   8.916
10958SOL    HW134881   1.984   4.800   8.997
10958SOL    HW234882   1.998   4.792   8.845
10959SOL     OW34883   3.191   4.767   8.681
10959SOL    HW134884   3.205   4.709   8.604
10959SOL    HW234885   3.124   4.829   8.646
10960SOL     OW34886   3.176   4.581   7.743
10960SOL    HW134887   3.095   4.556   7.788
10960SOL    HW234888   3.150   4.586   7.650
10961SOL     OW34889   3.619   5.479   8.584
10961SOL    HW134890   3.696   5.497   8.526
10961SOL    HW234891   3.607   5.383   8.568
10962SOL     OW34892   3.109   5.451   8.556
10962SOL    HW134893   3.194   5.478   8.519
10962SOL    HW234894   3.122   5.356   8.572
10963SOL     OW34895   1.965   4.981   8.476
10963SOL    HW134896   1.933   4.997   8.567
10963SOL    HW234897   1.884   4.950   8.433
10964SOL     OW34898   2.558   5.359   9.189
10964SOL    HW134899   2.517   5.445   9.169
10964SOL    HW234900   2.648   5.369   9.152
10965SOL     OW34901   3.537   3.863   7.938
10965SOL    HW134902   3.613   3.848   7.880
10965SOL    HW234903   3.540   3.785   7.997
10966SOL     OW34904   3.227   5.299   7.932
10966SOL    HW134905   3.290   5.316   7.859
10966SOL    HW234906   3.187   5.387   7.945
10967SOL     OW34907   2.010   5.519   9.279
10967SOL    HW134908   1.968   5.450   9.334
10967SOL    HW234909   2.056   5.571   9.347
10968SOL     OW34910   3.111   4.641   8.111
10968SOL    HW134911   3.191   4.589   8.131
10968SOL    HW234912   3.150   4.720   8.069
10969SOL     OW34913   2.673   4.984   8.875
10969SOL    HW134914   2.640   5.029   8.956
10969SOL    HW234915   2.604   5.007   8.812
10970SOL     OW34916   2.533   5.336   7.611
10970SOL    HW134917   2.544   5.350   7.515
10970SOL    HW234918   2.473   5.258   7.609
10971SOL     OW34919   3.480   5.449   8.843
10971SOL    HW134920   3.532   5.466   8.763
10971SOL    HW234921   3.470   5.539   8.880
10972SOL     OW34922   3.702   3.891   8.428
10972SOL    HW134923   3.724   3.805   8.388
10972SOL    HW234924   3.616   3.914   8.385
10973SOL     OW34925   2.110   4.043   8.144
10973SOL    HW134926   2.021   4.081   8.132
10973SOL    HW234927   2.119   4.041   8.241
10974SOL     OW34928   3.045   5.359   7.476
10974SOL    HW134929   3.055   5.265   7.497
10974SOL    HW234930   2.982   5.359   7.401
10975SOL     OW34931   2.676   4.719   8.831
10975SOL    HW134932   2.715   4.721   8.743
10975SOL    HW234933   2.673   4.814   8.854
10976SOL     OW34934   2.769   4.631   7.728
10976SOL    HW134935   2.840   4.667   7.672
10976SOL    HW234936   2.810   4.551   7.766
10977SOL     OW34937   3.395   5.346   7.489
10977SOL    HW134938   3.299   5.351   7.482
10977SOL    HW234939   3.422   5.348   7.394
10978SOL     OW34940   2.206   4.995   8.937
10978SOL    HW134941   2.203   5.065   8.869
10978SOL    HW234942   2.122   4.948   8.926
10979SOL     OW34943   3.465   5.031   8.713
10979SOL    HW134944   3.511   5.005   8.794
10979SOL    HW234945   3.407   5.102   8.747
10980SOL     OW34946   2.920   4.836   8.179
10980SOL    HW134947   2.844   4.785   8.213
10980SOL    HW234948   2.978   4.765   8.146
10981SOL     OW34949   2.894   3.952   8.436
10981SOL    HW134950   2.884   3.909   8.348
10981SOL    HW234951   2.894   3.875   8.495
10982SOL     OW34952   2.476   5.211   7.946
10982SOL    HW134953   2.527   5.179   7.870
10982SOL    HW234954   2.404   5.259   7.903
10983SOL     OW34955   3.573   4.097   8.825
10983SOL    HW134956   3.640   4.168   8.824
10983SOL    HW234957   3.618   4.026   8.774
10984SOL     OW34958   2.108   5.098   7.716
10984SOL    HW134959   2.011   5.085   7.705
10984SOL    HW234960   2.115   5.116   7.811
10985SOL     OW34961   1.989   4.737   9.152
10985SOL    HW134962   1.917   4.727   9.219
10985SOL    HW234963   2.068   4.702   9.200
10986SOL     OW34964   2.537   3.914   8.931
10986SOL    HW134965   2.624   3.882   8.899
10986SOL    HW234966   2.561   3.950   9.018
10987SOL     OW34967   1.943   4.107   7.439
10987SOL    HW134968   1.898   4.033   7.484
10987SOL    HW234969   1.887   4.182   7.467
10988SOL     OW34970   3.315   4.583   8.840
10988SOL    HW134971   3.270   4.645   8.779
10988SOL    HW234972   3.408   4.607   8.826
10989SOL     OW34973   1.918   3.889   7.684
10989SOL    HW134974   1.902   3.963   7.744
10989SOL    HW234975   2.010   3.862   7.702
10990SOL     OW34976   3.066   5.085   7.556
10990SOL    HW134977   2.978   5.047   7.558
10990SOL    HW234978   3.092   5.081   7.650
10991SOL     OW34979   2.481   4.535   8.889
10991SOL    HW134980   2.535   4.615   8.879
10991SOL    HW234981   2.552   4.468   8.894
10992SOL     OW34982   3.374   5.482   8.407
10992SOL    HW134983   3.406   5.526   8.326
10992SOL    HW234984   3.454   5.479   8.461
10993SOL     OW34985   2.590   4.258   9.134
10993SOL    HW134986   2.627   4.315   9.203
10993SOL    HW234987   2.605   4.167   9.167
10994SOL     OW34988   3.329   4.906   9.075
10994SOL    HW134989   3.322   4.915   9.172
10994SOL    HW234990   3.423   4.930   9.060
10995SOL     OW34991   2.234   5.454   9.012
10995SOL    HW134992   2.148   5.497   8.997
10995SOL    HW234993   2.207   5.370   9.052
10996SOL     OW34994   3.570   4.605   8.688
10996SOL    HW134995   3.540   4.518   8.657
10996SOL    HW234996   3.527   4.667   8.626
10997SOL     OW34997   3.063   4.042   7.934
10997SOL    HW134998   3.134   3.977   7.920
10997SOL    HW234999   3.103   4.102   8.001
10998SOL     OW35000   2.454   4.469   8.113
10998SOL    HW135001   2.491   4.557   8.096
10998SOL    HW235002   2.382   4.464   8.048
10999SOL     OW35003   3.627   4.105   9.085
10999SOL    HW135004   3.598   4.109   8.992
10999SOL    HW235005   3.554   4.056   9.126
11000SOL     OW35006   3.601   4.672   8.948
11000SOL    HW135007   3.597   4.769   8.947
11000SOL    HW235008   3.610   4.651   8.853
11001SOL     OW35009   2.724   5.083   7.487
11001SOL    HW135010   2.689   5.109   7.574
11001SOL    HW235011   2.740   5.167   7.442
11002SOL     OW35012   2.504   5.525   8.362
11002SOL    HW135013   2.502   5.621   8.346
11002SOL    HW235014   2.598   5.504   8.368
11003SOL     OW35015   2.736   4.670   8.300
11003SOL    HW135016   2.787   4.597   8.339
11003SOL    HW235017   2.722   4.729   8.376
11004SOL     OW35018   2.955   4.729   7.550
11004SOL    HW135019   2.925   4.784   7.476
11004SOL    HW235020   3.020   4.672   7.506
11005SOL     OW35021   3.729   5.287   8.287
11005SOL    HW135022   3.637   5.281   8.257
11005SOL    HW235023   3.735   5.215   8.351
11006SOL     OW35024   2.101   5.041   9.318
11006SOL    HW135025   2.027   4.981   9.303
11006SOL    HW235026   2.092   5.059   9.414
11007SOL     OW35027   1.942   4.976   8.123
11007SOL    HW135028   1.929   4.899   8.179
11007SOL    HW235029   2.029   4.958   8.083
11008SOL     OW35030   2.533   5.118   9.063
11008SOL    HW135031   2.457   5.070   9.098
11008SOL    HW235032   2.527   5.203   9.111
11009SOL     OW35033   3.686   3.892   8.688
11009SOL    HW135034   3.693   3.796   8.693
11009SOL    HW235035   3.693   3.905   8.590
11010SOL     OW35036   2.306   4.154   7.988
11010SOL    HW135037   2.341   4.082   7.935
11010SOL    HW235038   2.249   4.109   8.053
11011SOL     OW35039   3.586   5.221   8.537
11011SOL    HW135040   3.503   5.194   8.494
11011SOL    HW235041   3.589   5.159   8.610
11012SOL     OW35042   2.187   4.263   8.737
11012SOL    HW135043   2.262   4.219   8.782
11012SOL    HW235044   2.203   4.244   8.643
11013SOL     OW35045   2.681   5.319   8.124
11013SOL    HW135046   2.675   5.349   8.033
11013SOL    HW235047   2.598   5.269   8.134
11014SOL     OW35048   3.293   3.965   8.549
11014SOL    HW135049   3.326   3.888   8.595
11014SOL    HW235050   3.243   4.013   8.619
11015SOL     OW35051   2.880   3.725   8.601
11015SOL    HW135052   2.824   3.651   8.575
11015SOL    HW235053   2.970   3.685   8.599
11016SOL     OW35054   2.647   5.067   7.765
11016SOL    HW135055   2.615   4.976   7.764
11016SOL    HW235056   2.718   5.063   7.831
11017SOL     OW35057   2.462   5.285   8.718
11017SOL    HW135058   2.462   5.371   8.767
11017SOL    HW235059   2.556   5.280   8.695
11018SOL     OW35060   3.170   3.758   7.615
11018SOL    HW135061   3.189   3.684   7.556
11018SOL    HW235062   3.081   3.731   7.649
11019SOL     OW35063   3.168   4.203   8.125
11019SOL    HW135064   3.107   4.279   8.132
11019SOL    HW235065   3.150   4.155   8.208
11020SOL     OW35066   3.463   3.927   8.308
11020SOL    HW135067   3.385   3.937   8.364
11020SOL    HW235068   3.462   4.010   8.257
11021SOL     OW35069   1.913   4.795   7.757
11021SOL    HW135070   2.008   4.794   7.737
11021SOL    HW235071   1.898   4.701   7.781
11022SOL     OW35072   2.746   5.367   7.789
11022SOL    HW135073   2.670   5.354   7.730
11022SOL    HW235074   2.723   5.448   7.840
11023SOL     OW35075   2.100   4.365   9.439
11023SOL    HW135076   2.009   4.355   9.469
11023SOL    HW235077   2.098   4.339   9.346
11024SOL     OW35078   2.097   4.007  10.297
11024SOL    HW135079   2.115   3.983  10.390
11024SOL    HW235080   2.009   3.966  10.284
11025SOL     OW35081   1.861   4.124   9.929
11025SOL    HW135082   1.783   4.147   9.983
11025SOL    HW235083   1.834   4.039   9.891
11026SOL     OW35084   2.424   5.025  10.463
11026SOL    HW135085   2.330   5.011  10.449
11026SOL    HW235086   2.426   5.109  10.511
11027SOL     OW35087   3.433   5.234  10.018
11027SOL    HW135088   3.392   5.214  10.104
11027SOL    HW235089   3.359   5.234   9.956
11028SOL     OW35090   2.975   4.414   9.996
11028SOL    HW135091   3.022   4.498   9.986
11028SOL    HW235092   2.933   4.425  10.083
11029SOL     OW35093   3.636   4.334   9.550
11029SOL    HW135094   3.618   4.334   9.454
11029SOL    HW235095   3.578   4.262   9.581
11030SOL     OW35096   2.612   4.878  10.346
11030SOL    HW135097   2.540   4.927  10.392
11030SOL    HW235098   2.647   4.948  10.289
11031SOL     OW35099   2.747   4.480   0.030
11031SOL    HW135100   2.722   4.543   0.099
11031SOL    HW235101   2.776   4.540  11.059
11032SOL     OW35102   2.556   4.755   9.971
11032SOL    HW135103   2.616   4.734  10.045
11032SOL    HW235104   2.484   4.803  10.014
11033SOL     OW35105   2.180   5.157  10.388
11033SOL    HW135106   2.109   5.119  10.334
11033SOL    HW235107   2.233   5.208  10.323
11034SOL     OW35108   3.334   5.221  10.670
11034SOL    HW135109   3.387   5.303  10.675
11034SOL    HW235110   3.262   5.242  10.733
11035SOL     OW35111   2.312   4.116  10.804
11035SOL    HW135112   2.383   4.050  10.798
11035SOL    HW235113   2.232   4.062  10.817
11036SOL     OW35114   3.477   4.173  10.051
11036SOL    HW135115   3.408   4.207   9.992
11036SOL    HW235116   3.493   4.249  10.108
11037SOL     OW35117   2.082   5.445   9.785
11037SOL    HW135118   2.116   5.519   9.839
11037SOL    HW235119   2.143   5.446   9.710
11038SOL     OW35120   2.115   5.156   9.847
11038SOL    HW135121   2.109   5.252   9.854
11038SOL    HW235122   2.044   5.126   9.906
11039SOL     OW35123   2.128   4.805  10.192
11039SOL    HW135124   2.133   4.728  10.251
11039SOL    HW235125   2.074   4.867  10.244
11040SOL     OW35126   2.459   5.521  10.729
11040SOL    HW135127   2.387   5.500  10.791
11040SOL    HW235128   2.481   5.613  10.752
11041SOL     OW35129   2.433   4.713   9.430
11041SOL    HW135130   2.483   4.763   9.362
11041SOL    HW235131   2.475   4.747   9.512
11042SOL     OW35132   3.459   3.832  10.782
11042SOL    HW135133   3.451   3.922  10.748
11042SOL    HW235134   3.440   3.841  10.876
11043SOL     OW35135   1.977   4.372   9.871
11043SOL    HW135136   1.944   4.281   9.886
11043SOL    HW235137   1.973   4.412   9.960
11044SOL     OW35138   3.714   5.460   9.650
11044SOL    HW135139   3.776   5.442   9.724
11044SOL    HW235140   3.728   5.555   9.635
11045SOL     OW35141   1.923   5.315   9.435
11045SOL    HW135142   1.905   5.221   9.453
11045SOL    HW235143   1.882   5.359   9.512
11046SOL     OW35144   3.547   4.631   9.908
11046SOL    HW135145   3.614   4.591   9.851
11046SOL    HW235146   3.515   4.703   9.852
11047SOL     OW35147   3.505   4.847   9.749
11047SOL    HW135148   3.597   4.842   9.718
11047SOL    HW235149   3.513   4.907   9.826
11048SOL     OW35150   1.976   4.459  10.905
11048SOL    HW135151   2.065   4.472  10.938
11048SOL    HW235152   1.941   4.550  10.906
11049SOL     OW35153   2.464   5.130  10.067
11049SOL    HW135154   2.420   5.043  10.078
11049SOL    HW235155   2.454   5.142   9.971
11050SOL     OW35156   3.160   4.959  10.741
11050SOL    HW135157   3.181   4.889  10.675
11050SOL    HW235158   3.218   4.939  10.815
11051SOL     OW35159   2.694   3.719   9.813
11051SOL    HW135160   2.725   3.812   9.807
11051SOL    HW235161   2.598   3.732   9.826
11052SOL     OW35162   2.061   4.684  10.614
11052SOL    HW135163   2.148   4.652  10.586
11052SOL    HW235164   2.002   4.634  10.556
11053SOL     OW35165   3.420   4.678   9.483
11053SOL    HW135166   3.343   4.628   9.514
11053SOL    HW235167   3.446   4.726   9.564
11054SOL     OW35168   3.083   5.532  10.902
11054SOL    HW135169   3.066   5.597  10.832
11054SOL    HW235170   3.087   5.449  10.851
11055SOL     OW35171   2.212   3.958   0.004
11055SOL    HW135172   2.273   4.025   0.038
11055SOL    HW235173   2.128   4.008   0.003
11056SOL     OW35174   3.338   5.144  10.271
11056SOL    HW135175   3.270   5.164  10.338
11056SOL    HW235176   3.307   5.057  10.238
11057SOL     OW35177   3.522   5.456   9.901
11057SOL    HW135178   3.501   5.419   9.814
11057SOL    HW235179   3.496   5.382   9.959
11058SOL     OW35180   2.456   4.441   9.581
11058SOL    HW135181   2.456   4.528   9.538
11058SOL    HW235182   2.381   4.448   9.643
11059SOL     OW35183   3.141   4.089  10.247
11059SOL    HW135184   3.053   4.046  10.254
11059SOL    HW235185   3.194   4.035  10.308
11060SOL     OW35186   3.438   5.361   9.622
11060SOL    HW135187   3.529   5.396   9.619
11060SOL    HW235188   3.422   5.350   9.526
11061SOL     OW35189   2.678   4.340  10.778
11061SOL    HW135190   2.651   4.312  10.868
11061SOL    HW235191   2.627   4.279  10.721
11062SOL     OW35192   2.850   4.612  10.892
11062SOL    HW135193   2.880   4.534  10.842
11062SOL    HW235194   2.789   4.655  10.830
11063SOL     OW35195   2.841   4.122  10.557
11063SOL    HW135196   2.752   4.137  10.591
11063SOL    HW235197   2.824   4.071  10.477
11064SOL     OW35198   2.898   4.413   9.717
11064SOL    HW135199   2.914   4.429   9.812
11064SOL    HW235200   2.813   4.364   9.720
11065SOL     OW35201   1.967   4.528  10.105
11065SOL    HW135202   2.035   4.531  10.174
11065SOL    HW235203   1.922   4.613  10.116
11066SOL     OW35204   1.971   5.565  10.871
11066SOL    HW135205   1.966   5.514  10.953
11066SOL    HW235206   1.880   5.565  10.841
11067SOL     OW35207   2.740   4.103   9.512
11067SOL    HW135208   2.789   4.156   9.447
11067SOL    HW235209   2.758   4.013   9.482
11068SOL     OW35210   3.221   4.872   9.882
11068SOL    HW135211   3.294   4.861   9.819
11068SOL    HW235212   3.165   4.935   9.833
11069SOL     OW35213   2.414   3.920  10.197
11069SOL    HW135214   2.420   3.932  10.294
11069SOL    HW235215   2.404   4.011  10.165
11070SOL     OW35216   2.850   5.165   9.779
11070SOL    HW135217   2.800   5.227   9.722
11070SOL    HW235218   2.863   5.218   9.859
11071SOL     OW35219   2.206   5.529  10.180
11071SOL    HW135220   2.252   5.444  10.195
11071SOL    HW235221   2.279   5.592  10.188
11072SOL     OW35222   3.684   4.776  10.166
11072SOL    HW135223   3.621   4.761  10.093
11072SOL    HW235224   3.627   4.771  10.244
11073SOL     OW35225   3.099   5.286  10.796
11073SOL    HW135226   3.073   5.232  10.871
11073SOL    HW235227   3.036   5.253  10.729
11074SOL     OW35228   2.164   4.680   9.560
11074SOL    HW135229   2.244   4.704   9.511
11074SOL    HW235230   2.141   4.594   9.521
11075SOL     OW35231   3.345   4.484  10.033
11075SOL    HW135232   3.354   4.458  10.125
11075SOL    HW235233   3.428   4.531  10.014
11076SOL     OW35234   2.326   5.013  11.036
11076SOL    HW135235   2.294   5.016  10.943
11076SOL    HW235236   2.283   4.932  11.069
11077SOL     OW35237   2.948   5.489   9.560
11077SOL    HW135238   2.872   5.443   9.598
11077SOL    HW235239   2.961   5.444   9.475
11078SOL     OW35240   2.040   4.012  10.791
11078SOL    HW135241   1.972   4.077  10.814
11078SOL    HW235242   2.017   3.936  10.846
11079SOL     OW35243   3.495   5.086   9.408
11079SOL    HW135244   3.456   5.169   9.377
11079SOL    HW235245   3.433   5.018   9.372
11080SOL     OW35246   2.314   5.468   9.630
11080SOL    HW135247   2.364   5.517   9.698
11080SOL    HW235248   2.383   5.432   9.574
11081SOL     OW35249   3.256   3.862   9.751
11081SOL    HW135250   3.249   3.806   9.672
11081SOL    HW235251   3.352   3.868   9.763
11082SOL     OW35252   2.100   5.513  10.544
11082SOL    HW135253   2.167   5.452  10.577
11082SOL    HW235254   2.079   5.477  10.457
11083SOL     OW35255   2.821   5.431  10.186
11083SOL    HW135256   2.899   5.377  10.197
11083SOL    HW235257   2.771   5.379  10.119
11084SOL     OW35258   2.238   4.420   9.776
11084SOL    HW135259   2.270   4.329   9.793
11084SOL    HW235260   2.144   4.412   9.798
11085SOL     OW35261   2.499   3.860   9.400
11085SOL    HW135262   2.563   3.797   9.435
11085SOL    HW235263   2.449   3.803   9.337
11086SOL     OW35264   2.637   3.971  11.030
11086SOL    HW135265   2.702   3.935  11.092
11086SOL    HW235266   2.570   4.007  11.090
11087SOL     OW35267   2.756   5.268  10.502
11087SOL    HW135268   2.740   5.231  10.413
11087SOL    HW235269   2.823   5.209  10.539
11088SOL     OW35270   3.203   4.309  10.731
11088SOL    HW135271   3.245   4.275  10.811
11088SOL    HW235272   3.255   4.388  10.711
11089SOL     OW35273   2.686   5.128  10.257
11089SOL    HW135274   2.774   5.120  10.214
11089SOL    HW235275   2.626   5.130  10.180
11090SOL     OW35276   2.805   4.252  10.222
11090SOL    HW135277   2.771   4.240  10.130
11090SOL    HW235278   2.834   4.162  10.242
11091SOL     OW35279   2.427   3.776   9.814
11091SOL    HW135280   2.349   3.785   9.872
11091SOL    HW235281   2.415   3.853   9.755
11092SOL     OW35282   3.312   4.899   9.337
11092SOL    HW135283   3.337   4.818   9.387
11092SOL    HW235284   3.224   4.919   9.369
11093SOL     OW35285   2.139   3.766   9.502
11093SOL    HW135286   2.197   3.839   9.475
11093SOL    HW235287   2.204   3.704   9.541
11094SOL     OW35288   2.794   3.974   9.804
11094SOL    HW135289   2.767   4.024   9.726
11094SOL    HW235290   2.890   3.993   9.804
11095SOL     OW35291   2.959   4.407  10.756
11095SOL    HW135292   2.892   4.337  10.760
11095SOL    HW235293   3.042   4.358  10.744
11096SOL     OW35294   3.093   5.295  10.114
11096SOL    HW135295   3.090   5.351  10.034
11096SOL    HW235296   3.163   5.337  10.166
11097SOL     OW35297   2.332   4.889  10.047
11097SOL    HW135298   2.258   4.855  10.102
11097SOL    HW235299   2.297   4.866   9.958
11098SOL     OW35300   3.126   5.539   9.898
11098SOL    HW135301   3.176   5.597   9.837
11098SOL    HW235302   3.100   5.603   9.966
11099SOL     OW35303   2.919   4.252   9.337
11099SOL    HW135304   2.874   4.335   9.314
11099SOL    HW235305   2.988   4.279   9.401
11100SOL     OW35306   1.931   4.279  10.702
11100SOL    HW135307   2.026   4.269  10.682
11100SOL    HW235308   1.933   4.355  10.764
11101SOL     OW35309   2.425   3.948  10.470
11101SOL    HW135310   2.472   3.881  10.521
11101SOL    HW235311   2.334   3.940  10.503
11102SOL     OW35312   2.730   4.190   9.980
11102SOL    HW135313   2.679   4.236   9.911
11102SOL    HW235314   2.748   4.105   9.938
11103SOL     OW35315   2.922   3.796  10.079
11103SOL    HW135316   2.873   3.792   9.997
11103SOL    HW235317   2.885   3.720  10.129
11104SOL     OW35318   3.276   4.897  10.195
11104SOL    HW135319   3.200   4.840  10.209
11104SOL    HW235320   3.283   4.895  10.098
11105SOL     OW35321   3.324   4.311  10.294
11105SOL    HW135322   3.279   4.225  10.287
11105SOL    HW235323   3.392   4.298  10.363
11106SOL     OW35324   3.706   4.546   9.705
11106SOL    HW135325   3.759   4.487   9.764
11106SOL    HW235326   3.687   4.485   9.631
11107SOL     OW35327   2.356   5.150   9.426
11107SOL    HW135328   2.276   5.134   9.477
11107SOL    HW235329   2.341   5.098   9.346
11108SOL     OW35330   3.541   4.993   9.973
11108SOL    HW135331   3.638   5.002   9.982
11108SOL    HW235332   3.508   5.082   9.995
11109SOL     OW35333   3.268   4.319   9.379
11109SOL    HW135334   3.220   4.289   9.459
11109SOL    HW235335   3.357   4.285   9.395
11110SOL     OW35336   2.386   3.963   9.624
11110SOL    HW135337   2.428   3.935   9.541
11110SOL    HW235338   2.353   4.051   9.597
11111SOL     OW35339   3.625   4.946  10.865
11111SOL    HW135340   3.719   4.934  10.884
11111SOL    HW235341   3.610   5.037  10.897
11112SOL     OW35342   2.917   5.111  10.690
11112SOL    HW135343   2.836   5.062  10.714
11112SOL    HW235344   2.985   5.041  10.695
11113SOL     OW35345   2.974   4.962  10.420
11113SOL    HW135346   2.889   4.960  10.465
11113SOL    HW235347   2.952   5.003  10.335
11114SOL     OW35348   3.480   4.822  10.384
11114SOL    HW135349   3.489   4.887  10.457
11114SOL    HW235350   3.412   4.866  10.330
11115SOL     OW35351   2.767   3.838  10.679
11115SOL    HW135352   2.805   3.805  10.595
11115SOL    HW235353   2.848   3.870  10.724
11116SOL     OW35354   2.571   4.783   9.656
11116SOL    HW135355   2.562   4.757   9.749
11116SOL    HW235356   2.647   4.727   9.628
11117SOL     OW35357   2.298   4.539  10.578
11117SOL    HW135358   2.365   4.538  10.649
11117SOL    HW235359   2.258   4.450  10.587
11118SOL     OW35360   3.123   4.096  10.586
11118SOL    HW135361   3.147   4.181  10.629
11118SOL    HW235362   3.039   4.117  10.541
11119SOL     OW35363   1.935   5.290  10.647
11119SOL    HW135364   1.909   5.377  10.615
11119SOL    HW235365   2.032   5.293  10.649
11120SOL     OW35366   2.225   4.823   9.812
11120SOL    HW135367   2.232   4.893   9.746
11120SOL    HW235368   2.205   4.745   9.757
11121SOL     OW35369   2.401   4.260  10.152
11121SOL    HW135370   2.425   4.330  10.087
11121SOL    HW235371   2.465   4.277  10.223
11122SOL     OW35372   3.092   5.061   9.712
11122SOL    HW135373   3.131   5.142   9.748
11122SOL    HW235374   2.997   5.076   9.731
11123SOL     OW35375   3.152   5.181  10.468
11123SOL    HW135376   3.209   5.181  10.547
11123SOL    HW235377   3.098   5.102  10.480
11124SOL     OW35378   3.445   4.341   9.788
11124SOL    HW135379   3.392   4.397   9.846
11124SOL    HW235380   3.477   4.404   9.722
11125SOL     OW35381   2.211   5.237  10.635
11125SOL    HW135382   2.200   5.203  10.543
11125SOL    HW235383   2.308   5.244  10.642
11126SOL     OW35384   2.315   4.432  10.938
11126SOL    HW135385   2.374   4.477  10.874
11126SOL    HW235386   2.321   4.340  10.910
11127SOL     OW35387   2.423   4.620  10.351
11127SOL    HW135388   2.468   4.706  10.354
11127SOL    HW235389   2.389   4.608  10.442
11128SOL     OW35390   3.184   4.537  10.377
11128SOL    HW135391   3.122   4.535  10.303
11128SOL    HW235392   3.238   4.458  10.359
11129SOL     OW35393   3.087   4.249   9.576
11129SOL    HW135394   3.093   4.175   9.639
11129SOL    HW235395   3.022   4.306   9.621
11130SOL     OW35396   2.151   3.924  10.552
11130SOL    HW135397   2.107   3.959  10.632
11130SOL    HW235398   2.124   3.830  10.554
11131SOL     OW35399   1.929   5.006  10.588
11131SOL    HW135400   1.948   4.954  10.669
11131SOL    HW235401   1.913   5.096  10.623
11132SOL     OW35402   2.576   4.367  10.351
11132SOL    HW135403   2.659   4.353  10.303
11132SOL    HW235404   2.543   4.454  10.321
11133SOL     OW35405   2.185   3.796   9.918
11133SOL    HW135406   2.146   3.883   9.941
11133SOL    HW235407   2.183   3.750  10.004
11134SOL     OW35408   3.462   4.106   9.661
11134SOL    HW135409   3.490   4.034   9.720
11134SOL    HW235410   3.452   4.182   9.722
11135SOL     OW35411   2.911   4.489  10.268
11135SOL    HW135412   2.898   4.507  10.363
11135SOL    HW235413   2.883   4.396  10.260
11136SOL     OW35414   2.858   5.272  10.972
11136SOL    HW135415   2.843   5.342  10.904
11136SOL    HW235416   2.818   5.196  10.928
11137SOL     OW35417   3.716   5.209  10.895
11137SOL    HW135418   3.734   5.244  10.807
11137SOL    HW235419   3.792   5.243  10.946
11138SOL     OW35420   2.242   4.646  11.069
11138SOL    HW135421   2.314   4.657   0.032
11138SOL    HW235422   2.267   4.561  11.027
11139SOL     OW35423   3.368   3.975   9.437
11139SOL    HW135424   3.292   3.923   9.468
11139SOL    HW235425   3.403   4.016   9.519
11140SOL     OW35426   3.135   4.559   9.335
11140SOL    HW135427   3.179   4.473   9.347
11140SOL    HW235428   3.171   4.586   9.248
11141SOL     OW35429   2.928   5.087  10.162
11141SOL    HW135430   2.937   5.011  10.101
11141SOL    HW235431   2.999   5.149  10.135
11142SOL     OW35432   2.150   4.541  10.316
11142SOL    HW135433   2.246   4.558  10.317
11142SOL    HW235434   2.148   4.445  10.324
11143SOL     OW35435   2.187   4.261  10.309
11143SOL    HW135436   2.157   4.169  10.298
11143SOL    HW235437   2.257   4.267  10.240
11144SOL     OW35438   3.012   3.928  10.769
11144SOL    HW135439   3.035   3.982  10.845
11144SOL    HW235440   3.050   3.980  10.695
11145SOL     OW35441   1.858   5.043   9.497
11145SOL    HW135442   1.766   5.054   9.462
11145SOL    HW235443   1.855   4.954   9.536
11146SOL     OW35444   1.955   5.512  10.249
11146SOL    HW135445   1.929   5.442  10.186
11146SOL    HW235446   2.051   5.524  10.226
11147SOL     OW35447   2.352   5.311  10.248
11147SOL    HW135448   2.423   5.371  10.280
11147SOL    HW235449   2.401   5.251  10.189
11148SOL     OW35450   2.838   4.524  10.543
11148SOL    HW135451   2.896   4.481  10.608
11148SOL    HW235452   2.753   4.484  10.564
11149SOL     OW35453   1.889   4.236  10.421
11149SOL    HW135454   1.970   4.239  10.369
11149SOL    HW235455   1.923   4.228  10.511
11150SOL     OW35456   2.657   4.288   9.701
11150SOL    HW135457   2.673   4.227   9.626
11150SOL    HW235458   2.585   4.345   9.666
11151SOL     OW35459   3.508   4.333  10.502
11151SOL    HW135460   3.501   4.261  10.566
11151SOL    HW235461   3.593   4.311  10.458
11152SOL     OW35462   2.104   5.263  11.032
11152SOL    HW135463   2.055   5.294   0.010
11152SOL    HW235464   2.147   5.184  11.065
11153SOL     OW35465   2.554   4.203  10.576
11153SOL    HW135466   2.507   4.126  10.540
11153SOL    HW235467   2.549   4.267  10.502
11154SOL     OW35468   2.794   5.412  10.747
11154SOL    HW135469   2.775   5.375  10.659
11154SOL    HW235470   2.760   5.503  10.741
11155SOL     OW35471   2.299   4.195   9.510
11155SOL    HW135472   2.366   4.264   9.518
11155SOL    HW235473   2.218   4.249   9.498
11156SOL     OW35474   2.009   4.868  10.796
11156SOL    HW135475   2.010   4.813  10.877
11156SOL    HW235476   2.030   4.801  10.727
11157SOL     OW35477   3.165   4.775  10.543
11157SOL    HW135478   3.180   4.699  10.482
11157SOL    HW235479   3.098   4.827  10.496
11158SOL     OW35480   3.173   4.583   9.602
11158SOL    HW135481   3.089   4.556   9.642
11158SOL    HW235482   3.152   4.584   9.507
11159SOL     OW35483   3.612   5.478  10.434
11159SOL    HW135484   3.686   5.498  10.374
11159SOL    HW235485   3.604   5.381  10.423
11160SOL     OW35486   3.105   5.455  10.439
11160SOL    HW135487   3.193   5.476  10.406
11160SOL    HW235488   3.109   5.358  10.450
11161SOL     OW35489   1.971   4.978  10.331
11161SOL    HW135490   1.958   4.994  10.427
11161SOL    HW235491   1.886   4.939  10.306
11162SOL     OW35492   3.538   3.869   9.797
11162SOL    HW135493   3.612   3.852   9.736
11162SOL    HW235494   3.538   3.789   9.852
11163SOL     OW35495   3.228   5.306   9.805
11163SOL    HW135496   3.286   5.320   9.727
11163SOL    HW235497   3.186   5.394   9.816
11164SOL     OW35498   3.117   4.641   9.987
11164SOL    HW135499   3.200   4.592  10.001
11164SOL    HW235500   3.149   4.719   9.937
11165SOL     OW35501   2.676   4.988  10.748
11165SOL    HW135502   2.649   5.022  10.835
11165SOL    HW235503   2.605   5.021  10.691
11166SOL     OW35504   2.530   5.345   9.468
11166SOL    HW135505   2.549   5.354   9.373
11166SOL    HW235506   2.469   5.267   9.465
11167SOL     OW35507   3.488   5.440  10.684
11167SOL    HW135508   3.532   5.464  10.601
11167SOL    HW235509   3.472   5.526  10.725
11168SOL     OW35510   3.708   3.897  10.277
11168SOL    HW135511   3.729   3.806  10.248
11168SOL    HW235512   3.620   3.914  10.235
11169SOL     OW35513   2.113   4.043  10.006
11169SOL    HW135514   2.027   4.086   9.991
11169SOL    HW235515   2.123   4.047  10.102
11170SOL     OW35516   3.046   5.358   9.340
11170SOL    HW135517   3.059   5.262   9.354
11170SOL    HW235518   2.988   5.362   9.262
11171SOL     OW35519   2.680   4.715  10.708
11171SOL    HW135520   2.713   4.703  10.618
11171SOL    HW235521   2.689   4.811  10.722
11172SOL     OW35522   2.774   4.637   9.580
11172SOL    HW135523   2.849   4.684   9.539
11172SOL    HW235524   2.816   4.560   9.621
11173SOL     OW35525   3.411   5.342   9.346
11173SOL    HW135526   3.316   5.357   9.344
11173SOL    HW235527   3.433   5.344   9.250
11174SOL     OW35528   2.227   5.017  10.794
11174SOL    HW135529   2.203   5.092  10.738
11174SOL    HW235530   2.147   4.961  10.790
11175SOL     OW35531   3.481   5.023  10.579
11175SOL    HW135532   3.526   4.997  10.660
11175SOL    HW235533   3.419   5.090  10.612
11176SOL     OW35534   2.919   4.842  10.042
11176SOL    HW135535   2.839   4.795  10.070
11176SOL    HW235536   2.978   4.768  10.022
11177SOL     OW35537   2.902   3.964  10.295
11177SOL    HW135538   2.895   3.917  10.209
11177SOL    HW235539   2.896   3.888  10.357
11178SOL     OW35540   2.485   5.216   9.798
11178SOL    HW135541   2.529   5.170   9.724
11178SOL    HW235542   2.404   5.249   9.757
11179SOL     OW35543   3.562   4.120  10.698
11179SOL    HW135544   3.636   4.184  10.699
11179SOL    HW235545   3.599   4.051  10.638
11180SOL     OW35546   2.107   5.109   9.582
11180SOL    HW135547   2.012   5.087   9.575
11180SOL    HW235548   2.116   5.128   9.677
11181SOL     OW35549   1.995   4.732  11.018
11181SOL    HW135550   1.931   4.712  11.087
11181SOL    HW235551   2.080   4.703  11.056
11182SOL     OW35552   2.527   3.920  10.778
11182SOL    HW135553   2.614   3.906  10.735
11182SOL    HW235554   2.555   3.941  10.869
11183SOL     OW35555   1.955   4.066   9.336
11183SOL    HW135556   1.860   4.066   9.317
11183SOL    HW235557   1.987   4.136   9.276
11184SOL     OW35558   3.330   4.573  10.764
11184SOL    HW135559   3.256   4.619  10.721
11184SOL    HW235560   3.400   4.588  10.697
11185SOL     OW35561   1.907   3.880   9.606
11185SOL    HW135562   1.909   3.969   9.567
11185SOL    HW235563   1.991   3.843   9.572
11186SOL     OW35564   3.067   5.084   9.432
11186SOL    HW135565   2.990   5.026   9.440
11186SOL    HW235566   3.098   5.088   9.525
11187SOL     OW35567   2.492   4.536  10.760
11187SOL    HW135568   2.550   4.614  10.748
11187SOL    HW235569   2.558   4.464  10.765
11188SOL     OW35570   3.364   5.497  10.305
11188SOL    HW135571   3.400   5.535  10.224
11188SOL    HW235572   3.443   5.492  10.362
11189SOL     OW35573   2.602   4.276  11.030
11189SOL    HW135574   2.635   4.348  11.087
11189SOL    HW235575   2.656   4.201  11.056
11190SOL     OW35576   2.230   5.449  10.874
11190SOL    HW135577   2.151   5.501  10.852
11190SOL    HW235578   2.193   5.381  10.934
11191SOL     OW35579   3.520   4.613  10.569
11191SOL    HW135580   3.520   4.524  10.530
11191SOL    HW235581   3.506   4.671  10.492
11192SOL     OW35582   3.058   4.052   9.776
11192SOL    HW135583   3.127   3.983   9.769
11192SOL    HW235584   3.089   4.103   9.853
11193SOL     OW35585   2.453   4.474   9.975
11193SOL    HW135586   2.481   4.566   9.961
11193SOL    HW235587   2.376   4.468   9.916
11194SOL     OW35588   3.632   4.068  10.950
11194SOL    HW135589   3.597   4.083  10.859
11194SOL    HW235590   3.554   4.042  10.999
11195SOL     OW35591   3.603   4.678  10.824
11195SOL    HW135592   3.618   4.774  10.828
11195SOL    HW235593   3.595   4.663  10.727
11196SOL     OW35594   2.711   5.087   9.343
11196SOL    HW135595   2.686   5.102   9.435
11196SOL    HW235596   2.738   5.174   9.311
11197SOL     OW35597   2.515   5.531  10.280
11197SOL    HW135598   2.495   5.619  10.243
11197SOL    HW235599   2.605   5.516  10.248
11198SOL     OW35600   2.737   4.680  10.168
11198SOL    HW135601   2.790   4.603  10.196
11198SOL    HW235602   2.716   4.724  10.252
11199SOL     OW35603   2.962   4.750   9.418
11199SOL    HW135604   2.922   4.794   9.340
11199SOL    HW235605   3.006   4.675   9.375
11200SOL     OW35606   3.716   5.279  10.170
11200SOL    HW135607   3.648   5.279  10.101
11200SOL    HW235608   3.673   5.231  10.244
11201SOL     OW35609   1.949   4.983   9.982
11201SOL    HW135610   1.934   4.926  10.059
11201SOL    HW235611   2.029   4.944   9.945
11202SOL     OW35612   2.549   5.137  10.938
11202SOL    HW135613   2.479   5.082  10.978
11202SOL    HW235614   2.500   5.218  10.918
11203SOL     OW35615   3.656   3.930  10.540
11203SOL    HW135616   3.690   3.841  10.556
11203SOL    HW235617   3.671   3.938  10.444
11204SOL     OW35618   2.296   4.162   9.836
11204SOL    HW135619   2.334   4.090   9.784
11204SOL    HW235620   2.247   4.116   9.906
11205SOL     OW35621   3.582   5.213  10.401
11205SOL    HW135622   3.498   5.191  10.356
11205SOL    HW235623   3.578   5.151  10.476
11206SOL     OW35624   2.206   4.267  10.594
11206SOL    HW135625   2.263   4.211  10.651
11206SOL    HW235626   2.218   4.231  10.505
11207SOL     OW35627   2.685   5.314   9.987
11207SOL    HW135628   2.681   5.351   9.898
11207SOL    HW235629   2.601   5.267   9.993
11208SOL     OW35630   3.295   3.965  10.434
11208SOL    HW135631   3.328   3.888  10.481
11208SOL    HW235632   3.234   4.006  10.499
11209SOL     OW35633   2.883   3.737  10.454
11209SOL    HW135634   2.827   3.667  10.418
11209SOL    HW235635   2.970   3.692  10.460
11210SOL     OW35636   2.647   5.061   9.621
11210SOL    HW135637   2.615   4.969   9.622
11210SOL    HW235638   2.721   5.057   9.684
11211SOL     OW35639   2.479   5.272  10.612
11211SOL    HW135640   2.479   5.361  10.654
11211SOL    HW235641   2.554   5.279  10.552
11212SOL     OW35642   3.173   3.766   9.475
11212SOL    HW135643   3.184   3.689   9.417
11212SOL    HW235644   3.086   3.745   9.515
11213SOL     OW35645   3.136   4.192   9.989
11213SOL    HW135646   3.082   4.273   9.988
11213SOL    HW235647   3.133   4.164  10.082
11214SOL     OW35648   3.461   3.934  10.178
11214SOL    HW135649   3.389   3.945  10.242
11214SOL    HW235650   3.459   4.018  10.128
11215SOL     OW35651   1.908   4.801   9.624
11215SOL    HW135652   2.002   4.791   9.601
11215SOL    HW235653   1.884   4.709   9.644
11216SOL     OW35654   2.728   5.373   9.647
11216SOL    HW135655   2.653   5.359   9.586
11216SOL    HW235656   2.705   5.455   9.694
11217SOL     OW35657   2.096   6.249   0.139
11217SOL    HW135658   2.018   6.206   0.175
11217SOL    HW235659   2.127   6.190   0.070
11218SOL     OW35660   2.095   5.855   0.980
11218SOL    HW135661   2.118   5.839   1.073
11218SOL    HW235662   2.006   5.815   0.975
11219SOL     OW35663   1.864   5.988   0.633
11219SOL    HW135664   1.784   6.009   0.685
11219SOL    HW235665   1.834   5.911   0.582
11220SOL     OW35666   2.426   6.884   1.190
11220SOL    HW135667   2.330   6.881   1.176
11220SOL    HW235668   2.439   6.976   1.219
11221SOL     OW35669   3.404   7.111   0.724
11221SOL    HW135670   3.371   7.074   0.808
11221SOL    HW235671   3.336   7.089   0.659
11222SOL     OW35672   3.010   6.278   0.731
11222SOL    HW135673   3.035   6.366   0.697
11222SOL    HW235674   2.959   6.301   0.810
11223SOL     OW35675   3.635   6.188   0.215
11223SOL    HW135676   3.572   6.225   0.152
11223SOL    HW235677   3.580   6.129   0.268
11224SOL     OW35678   2.621   6.751   1.055
11224SOL    HW135679   2.546   6.795   1.100
11224SOL    HW235680   2.648   6.822   0.995
11225SOL     OW35681   2.746   6.338   1.795
11225SOL    HW135682   2.730   6.405   1.863
11225SOL    HW235683   2.774   6.392   1.718
11226SOL     OW35684   2.548   6.595   0.639
11226SOL    HW135685   2.617   6.582   0.706
11226SOL    HW235686   2.479   6.645   0.688
11227SOL     OW35687   2.555   6.740   1.811
11227SOL    HW135688   2.604   6.822   1.833
11227SOL    HW235689   2.471   6.776   1.777
11228SOL     OW35690   2.175   7.021   1.088
11228SOL    HW135691   2.101   6.978   1.042
11228SOL    HW235692   2.225   7.064   1.016
11229SOL     OW35693   3.330   7.087   1.366
11229SOL    HW135694   3.386   7.166   1.376
11229SOL    HW235695   3.268   7.097   1.440
11230SOL     OW35696   2.286   5.976   1.536
11230SOL    HW135697   2.363   5.920   1.516
11230SOL    HW235698   2.210   5.925   1.502
11231SOL     OW35699   3.489   6.042   0.750
11231SOL    HW135700   3.413   6.054   0.690
11231SOL    HW235701   3.485   6.126   0.798
11232SOL     OW35702   2.099   7.307   0.500
11232SOL    HW135703   2.145   7.390   0.526
11232SOL    HW235704   2.128   7.297   0.408
11233SOL     OW35705   2.988   6.937   1.660
11233SOL    HW135706   3.040   6.939   1.742
11233SOL    HW235707   2.950   6.847   1.665
11234SOL     OW35708   2.109   7.009   0.529
11234SOL    HW135709   2.104   7.105   0.541
11234SOL    HW235710   2.041   6.977   0.590
11235SOL     OW35711   2.126   6.674   0.910
11235SOL    HW135712   2.130   6.599   0.970
11235SOL    HW235713   2.071   6.738   0.959
11236SOL     OW35714   2.464   7.386   1.405
11236SOL    HW135715   2.390   7.356   1.461
11236SOL    HW235716   2.487   7.471   1.446
11237SOL     OW35717   2.444   6.578   0.142
11237SOL    HW135718   2.502   6.622   0.079
11237SOL    HW235719   2.485   6.605   0.227
11238SOL     OW35720   3.475   5.712   1.500
11238SOL    HW135721   3.484   5.789   1.441
11238SOL    HW235722   3.480   5.754   1.587
11239SOL     OW35723   1.983   6.246   0.560
11239SOL    HW135724   1.947   6.159   0.583
11239SOL    HW235725   1.979   6.294   0.646
11240SOL     OW35726   3.709   7.324   0.363
11240SOL    HW135727   3.769   7.305   0.437
11240SOL    HW235728   3.728   7.418   0.346
11241SOL     OW35729   1.935   7.196   0.128
11241SOL    HW135730   1.916   7.106   0.159
11241SOL    HW235731   1.906   7.250   0.204
11242SOL     OW35732   3.577   6.517   0.623
11242SOL    HW135733   3.649   6.480   0.571
11242SOL    HW235734   3.527   6.566   0.555
11243SOL     OW35735   3.497   6.710   0.436
11243SOL    HW135736   3.576   6.735   0.386
11243SOL    HW235737   3.496   6.776   0.509
11244SOL     OW35738   1.967   6.317   1.577
11244SOL    HW135739   2.047   6.368   1.588
11244SOL    HW235740   1.898   6.385   1.584
11245SOL     OW35741   2.451   7.002   0.742
11245SOL    HW135742   2.418   6.911   0.753
11245SOL    HW235743   2.440   7.016   0.646
11246SOL     OW35744   3.151   6.810   1.420
11246SOL    HW135745   3.177   6.740   1.357
11246SOL    HW235746   3.210   6.794   1.496
11247SOL     OW35747   2.699   5.601   0.453
11247SOL    HW135748   2.732   5.692   0.467
11247SOL    HW235749   2.605   5.610   0.476
11248SOL     OW35750   2.031   6.568   1.267
11248SOL    HW135751   2.122   6.533   1.259
11248SOL    HW235752   1.979   6.504   1.216
11249SOL     OW35753   3.423   6.553   0.191
11249SOL    HW135754   3.348   6.500   0.227
11249SOL    HW235755   3.447   6.603   0.271
11250SOL     OW35756   3.037   7.384   1.619
11250SOL    HW135757   3.045   7.446   1.546
11250SOL    HW235758   3.060   7.300   1.576
11251SOL     OW35759   2.207   5.815   1.836
11251SOL    HW135760   2.251   5.893   1.800
11251SOL    HW235761   2.116   5.851   1.847
11252SOL     OW35762   3.328   7.007   0.962
11252SOL    HW135763   3.266   7.026   1.035
11252SOL    HW235764   3.297   6.918   0.932
11253SOL     OW35765   3.517   7.322   0.592
11253SOL    HW135766   3.513   7.279   0.505
11253SOL    HW235767   3.482   7.251   0.649
11254SOL     OW35768   2.446   6.289   0.269
11254SOL    HW135769   2.470   6.373   0.227
11254SOL    HW235770   2.387   6.316   0.342
11255SOL     OW35771   3.134   5.938   0.938
11255SOL    HW135772   3.044   5.905   0.958
11255SOL    HW235773   3.189   5.884   0.997
11256SOL     OW35774   3.429   7.235   0.324
11256SOL    HW135775   3.522   7.258   0.312
11256SOL    HW235776   3.402   7.220   0.231
11257SOL     OW35777   2.668   6.204   1.473
11257SOL    HW135778   2.638   6.170   1.561
11257SOL    HW235779   2.620   6.146   1.411
11258SOL     OW35780   3.263   6.064   1.675
11258SOL    HW135781   3.268   6.122   1.754
11258SOL    HW235782   3.326   5.993   1.698
11259SOL     OW35783   2.831   6.475   1.585
11259SOL    HW135784   2.868   6.393   1.545
11259SOL    HW235785   2.780   6.510   1.509
11260SOL     OW35786   2.844   5.983   1.241
11260SOL    HW135787   2.754   6.001   1.272
11260SOL    HW235788   2.830   5.940   1.155
11261SOL     OW35789   2.875   6.269   0.402
11261SOL    HW135790   2.909   6.288   0.490
11261SOL    HW235791   2.801   6.208   0.418
11262SOL     OW35792   1.972   6.399   0.782
11262SOL    HW135793   2.041   6.393   0.851
11262SOL    HW235794   1.922   6.478   0.811
11263SOL     OW35795   1.976   7.441   1.573
11263SOL    HW135796   1.994   7.425   1.668
11263SOL    HW235797   1.906   7.377   1.558
11264SOL     OW35798   2.747   5.962   0.198
11264SOL    HW135799   2.804   6.016   0.139
11264SOL    HW235800   2.769   5.871   0.173
11265SOL     OW35801   3.590   6.177   1.848
11265SOL    HW135802   3.550   6.254   1.801
11265SOL    HW235803   3.616   6.123   1.773
11266SOL     OW35804   3.226   6.768   0.575
11266SOL    HW135805   3.292   6.723   0.518
11266SOL    HW235806   3.177   6.820   0.509
11267SOL     OW35807   2.414   5.789   0.909
11267SOL    HW135808   2.415   5.812   1.004
11267SOL    HW235809   2.409   5.875   0.866
11268SOL     OW35810   2.849   7.012   0.491
11268SOL    HW135811   2.816   7.085   0.433
11268SOL    HW235812   2.851   7.055   0.578
11269SOL     OW35813   2.201   7.399   0.856
11269SOL    HW135814   2.245   7.312   0.869
11269SOL    HW235815   2.273   7.460   0.875
11270SOL     OW35816   3.678   6.636   0.878
11270SOL    HW135817   3.631   6.614   0.796
11270SOL    HW235818   3.609   6.625   0.946
11271SOL     OW35819   3.089   7.148   1.497
11271SOL    HW135820   3.065   7.078   1.560
11271SOL    HW235821   3.043   7.116   1.418
11272SOL     OW35822   2.182   6.554   0.270
11272SOL    HW135823   2.268   6.545   0.226
11272SOL    HW235824   2.138   6.471   0.248
11273SOL     OW35825   3.363   6.320   0.714
11273SOL    HW135826   3.335   6.316   0.806
11273SOL    HW235827   3.425   6.394   0.712
11274SOL     OW35828   2.325   6.836   1.713
11274SOL    HW135829   2.278   6.847   1.627
11274SOL    HW235830   2.252   6.849   1.776
11275SOL     OW35831   2.949   7.351   0.210
11275SOL    HW135832   2.903   7.293   0.274
11275SOL    HW235833   2.983   7.287   0.145
11276SOL     OW35834   2.041   5.869   1.485
11276SOL    HW135835   1.963   5.925   1.498
11276SOL    HW235836   2.010   5.781   1.512
11277SOL     OW35837   3.498   6.926   0.088
11277SOL    HW135838   3.455   7.011   0.072
11277SOL    HW235839   3.433   6.861   0.054
11278SOL     OW35840   2.320   7.334   0.303
11278SOL    HW135841   2.362   7.373   0.381
11278SOL    HW235842   2.395   7.329   0.242
11279SOL     OW35843   3.261   5.687   0.454
11279SOL    HW135844   3.259   5.650   0.364
11279SOL    HW235845   3.354   5.712   0.465
11280SOL     OW35846   2.118   7.392   1.232
11280SOL    HW135847   2.158   7.332   1.296
11280SOL    HW235848   2.081   7.330   1.169
11281SOL     OW35849   2.823   7.287   0.867
11281SOL    HW135850   2.906   7.239   0.879
11281SOL    HW235851   2.775   7.228   0.805
11282SOL     OW35852   2.242   6.286   0.469
11282SOL    HW135853   2.262   6.191   0.478
11282SOL    HW235854   2.148   6.287   0.495
11283SOL     OW35855   3.412   5.849   1.732
11283SOL    HW135856   3.404   5.849   1.831
11283SOL    HW235857   3.342   5.788   1.708
11284SOL     OW35858   2.480   5.686   0.110
11284SOL    HW135859   2.573   5.675   0.134
11284SOL    HW235860   2.482   5.689   0.014
11285SOL     OW35861   2.631   5.859   1.730
11285SOL    HW135862   2.713   5.807   1.735
11285SOL    HW235863   2.585   5.832   1.811
11286SOL     OW35864   2.746   7.135   1.186
11286SOL    HW135865   2.737   7.100   1.096
11286SOL    HW235866   2.806   7.070   1.227
11287SOL     OW35867   3.195   6.181   1.435
11287SOL    HW135868   3.236   6.152   1.519
11287SOL    HW235869   3.243   6.264   1.414
11288SOL     OW35870   2.670   6.995   0.929
11288SOL    HW135871   2.755   6.979   0.883
11288SOL    HW235872   2.606   7.003   0.856
11289SOL     OW35873   2.816   6.100   0.897
11289SOL    HW135874   2.796   6.082   0.802
11289SOL    HW235875   2.840   6.011   0.927
11290SOL     OW35876   2.434   5.644   0.495
11290SOL    HW135877   2.354   5.651   0.552
11290SOL    HW235878   2.417   5.718   0.432
11291SOL     OW35879   3.301   6.753   0.019
11291SOL    HW135880   3.330   6.680   0.076
11291SOL    HW235881   3.218   6.781   0.061
11292SOL     OW35882   2.148   5.651   0.214
11292SOL    HW135883   2.196   5.692   0.141
11292SOL    HW235884   2.210   5.580   0.240
11293SOL     OW35885   2.806   5.848   0.463
11293SOL    HW135886   2.792   5.897   0.381
11293SOL    HW235887   2.902   5.863   0.478
11294SOL     OW35888   2.943   6.258   1.476
11294SOL    HW135889   2.885   6.180   1.474
11294SOL    HW235890   3.033   6.220   1.471
11295SOL     OW35891   3.088   7.167   0.798
11295SOL    HW135892   3.098   7.224   0.719
11295SOL    HW235893   3.171   7.183   0.844
11296SOL     OW35894   2.341   6.742   0.753
11296SOL    HW135895   2.267   6.714   0.811
11296SOL    HW235896   2.302   6.722   0.665
11297SOL     OW35897   3.103   7.398   0.623
11297SOL    HW135898   3.154   7.467   0.577
11297SOL    HW235899   3.061   7.447   0.694
11298SOL     OW35900   2.899   6.116   0.039
11298SOL    HW135901   2.865   6.207   0.035
11298SOL    HW235902   2.988   6.130   0.075
11299SOL     OW35903   1.921   6.128   1.391
11299SOL    HW135904   2.015   6.133   1.368
11299SOL    HW235905   1.912   6.206   1.449
11300SOL     OW35906   2.423   5.838   1.183
11300SOL    HW135907   2.470   5.761   1.219
11300SOL    HW235908   2.330   5.818   1.207
11301SOL     OW35909   2.750   6.030   0.651
11301SOL    HW135910   2.698   6.087   0.593
11301SOL    HW235911   2.762   5.951   0.595
11302SOL     OW35912   2.859   5.668   0.777
11302SOL    HW135913   2.831   5.647   0.687
11302SOL    HW235914   2.849   5.584   0.824
11303SOL     OW35915   3.284   6.764   0.873
11303SOL    HW135916   3.218   6.693   0.877
11303SOL    HW235917   3.292   6.774   0.777
11304SOL     OW35918   3.321   6.183   0.986
11304SOL    HW135919   3.276   6.097   0.986
11304SOL    HW235920   3.388   6.174   1.056
11305SOL     OW35921   3.740   6.415   0.361
11305SOL    HW135922   3.775   6.356   0.430
11305SOL    HW235923   3.685   6.353   0.311
11306SOL     OW35924   2.349   7.041   0.137
11306SOL    HW135925   2.272   7.012   0.190
11306SOL    HW235926   2.352   6.972   0.068
11307SOL     OW35927   3.526   6.884   0.644
11307SOL    HW135928   3.623   6.882   0.654
11307SOL    HW235929   3.500   6.969   0.683
11308SOL     OW35930   3.238   6.184   0.064
11308SOL    HW135931   3.204   6.158   0.152
11308SOL    HW235932   3.302   6.116   0.046
11309SOL     OW35933   2.374   5.823   0.315
11309SOL    HW135934   2.404   5.775   0.235
11309SOL    HW235935   2.349   5.909   0.278
11310SOL     OW35936   3.594   6.819   1.569
11310SOL    HW135937   3.681   6.776   1.576
11310SOL    HW235938   3.618   6.912   1.583
11311SOL     OW35939   2.926   6.952   1.342
11311SOL    HW135940   2.851   6.912   1.389
11311SOL    HW235941   3.001   6.901   1.379
11312SOL     OW35942   3.473   7.190   1.631
11312SOL    HW135943   3.477   7.226   1.541
11312SOL    HW235944   3.555   7.137   1.635
11313SOL     OW35945   2.986   6.815   1.100
11313SOL    HW135946   2.917   6.835   1.164
11313SOL    HW235947   2.949   6.852   1.017
11314SOL     OW35948   3.457   6.673   1.075
11314SOL    HW135949   3.466   6.743   1.143
11314SOL    HW235950   3.404   6.719   1.007
11315SOL     OW35951   2.785   5.673   1.406
11315SOL    HW135952   2.810   5.660   1.313
11315SOL    HW235953   2.862   5.722   1.440
11316SOL     OW35954   2.865   6.700   1.746
11316SOL    HW135955   2.774   6.729   1.759
11316SOL    HW235956   2.856   6.627   1.681
11317SOL     OW35957   2.596   6.655   0.370
11317SOL    HW135958   2.585   6.630   0.463
11317SOL    HW235959   2.669   6.597   0.340
11318SOL     OW35960   2.275   6.404   1.275
11318SOL    HW135961   2.352   6.396   1.335
11318SOL    HW235962   2.238   6.315   1.278
11319SOL     OW35963   3.149   5.974   1.263
11319SOL    HW135964   3.167   6.051   1.321
11319SOL    HW235965   3.063   5.996   1.224
11320SOL     OW35966   1.932   7.165   1.323
11320SOL    HW135967   1.886   7.246   1.347
11320SOL    HW235968   1.954   7.129   1.411
11321SOL     OW35969   2.233   6.690   0.512
11321SOL    HW135970   2.220   6.765   0.453
11321SOL    HW235971   2.231   6.616   0.449
11322SOL     OW35972   2.406   6.116   0.872
11322SOL    HW135973   2.427   6.182   0.803
11322SOL    HW235974   2.478   6.131   0.935
11323SOL     OW35975   3.091   6.936   0.401
11323SOL    HW135976   3.133   7.019   0.431
11323SOL    HW235977   3.001   6.945   0.436
11324SOL     OW35978   3.155   7.052   1.158
11324SOL    HW135979   3.207   7.049   1.241
11324SOL    HW235980   3.095   6.975   1.166
11325SOL     OW35981   3.432   6.197   0.460
11325SOL    HW135982   3.395   6.232   0.543
11325SOL    HW235983   3.400   6.267   0.400
11326SOL     OW35984   2.214   7.079   1.345
11326SOL    HW135985   2.176   7.057   1.257
11326SOL    HW235986   2.302   7.110   1.317
11327SOL     OW35987   2.316   6.337   1.668
11327SOL    HW135988   2.360   6.379   1.592
11327SOL    HW235989   2.347   6.246   1.656
11328SOL     OW35990   3.489   6.360   1.691
11328SOL    HW135991   3.399   6.399   1.685
11328SOL    HW235992   3.530   6.399   1.611
11329SOL     OW35993   2.849   5.702   1.753
11329SOL    HW135994   2.923   5.764   1.748
11329SOL    HW235995   2.888   5.623   1.713
11330SOL     OW35996   2.351   5.597   1.750
11330SOL    HW135997   2.314   5.539   1.681
11330SOL    HW235998   2.291   5.673   1.747
11331SOL     OW35999   2.458   6.486   1.065
11331SOL    HW136000   2.485   6.578   1.052
11331SOL    HW236001   2.395   6.492   1.139
11332SOL     OW36002   3.222   6.441   1.015
11332SOL    HW136003   3.138   6.417   0.974
11332SOL    HW236004   3.266   6.354   1.017
11333SOL     OW36005   3.095   6.090   0.277
11333SOL    HW136006   3.097   6.028   0.352
11333SOL    HW236007   3.061   6.171   0.318
11334SOL     OW36008   2.168   5.781   1.244
11334SOL    HW136009   2.117   5.809   1.321
11334SOL    HW236010   2.140   5.687   1.236
11335SOL     OW36011   1.891   6.889   1.295
11335SOL    HW136012   1.907   6.846   1.381
11335SOL    HW236013   1.909   6.983   1.315
11336SOL     OW36014   2.585   6.236   1.044
11336SOL    HW136015   2.664   6.237   0.987
11336SOL    HW236016   2.550   6.327   1.036
11337SOL     OW36017   3.632   6.546   1.851
11337SOL    HW136018   3.583   6.500   1.781
11337SOL    HW236019   3.568   6.543   1.924
11338SOL     OW36020   2.199   5.656   0.616
11338SOL    HW136021   2.157   5.741   0.641
11338SOL    HW236022   2.194   5.607   0.700
11339SOL     OW36023   3.464   5.958   0.339
11339SOL    HW136024   3.494   5.893   0.404
11339SOL    HW236025   3.446   6.038   0.394
11340SOL     OW36026   2.907   6.344   0.979
11340SOL    HW136027   2.891   6.355   1.074
11340SOL    HW236028   2.888   6.249   0.963
11341SOL     OW36029   2.843   7.152   1.704
11341SOL    HW136030   2.835   7.203   1.621
11341SOL    HW236031   2.878   7.066   1.672
11342SOL     OW36032   3.717   7.072   1.601
11342SOL    HW136033   3.735   7.108   1.512
11342SOL    HW236034   3.798   7.100   1.649
11343SOL     OW36035   3.380   5.849   0.104
11343SOL    HW136036   3.312   5.795   0.146
11343SOL    HW236037   3.422   5.892   0.181
11344SOL     OW36038   3.133   6.435   0.004
11344SOL    HW136039   3.169   6.363   0.059
11344SOL    HW236040   3.183   6.425  11.024
11345SOL     OW36041   2.922   6.944   0.848
11345SOL    HW136042   2.934   6.867   0.788
11345SOL    HW236043   2.991   7.007   0.821
11346SOL     OW36044   2.147   6.385   0.996
11346SOL    HW136045   2.237   6.401   0.965
11346SOL    HW236046   2.151   6.290   1.019
11347SOL     OW36047   2.180   6.113   1.006
11347SOL    HW136048   2.152   6.023   0.981
11347SOL    HW236049   2.261   6.122   0.951
11348SOL     OW36050   3.015   5.954   1.703
11348SOL    HW136051   2.967   6.012   1.765
11348SOL    HW236052   3.103   5.996   1.700
11349SOL     OW36053   3.025   5.781   1.481
11349SOL    HW136054   3.025   5.848   1.552
11349SOL    HW236055   3.066   5.831   1.408
11350SOL     OW36056   1.864   6.934   0.214
11350SOL    HW136057   1.777   6.944   0.170
11350SOL    HW236058   1.872   6.837   0.215
11351SOL     OW36059   1.952   7.358   0.939
11351SOL    HW136060   1.924   7.293   0.871
11351SOL    HW236061   2.046   7.373   0.914
11352SOL     OW36062   2.340   7.166   0.924
11352SOL    HW136063   2.414   7.228   0.936
11352SOL    HW236064   2.377   7.102   0.861
11353SOL     OW36065   2.842   6.364   1.246
11353SOL    HW136066   2.894   6.329   1.321
11353SOL    HW236067   2.755   6.328   1.265
11354SOL     OW36068   1.888   6.104   1.106
11354SOL    HW136069   1.967   6.097   1.051
11354SOL    HW236070   1.927   6.110   1.195
11355SOL     OW36071   2.086   6.100   1.709
11355SOL    HW136072   2.140   6.059   1.639
11355SOL    HW236073   2.036   6.168   1.661
11356SOL     OW36074   3.264   6.501   1.651
11356SOL    HW136075   3.284   6.597   1.647
11356SOL    HW236076   3.239   6.483   1.559
11357SOL     OW36077   2.645   6.122   0.389
11357SOL    HW136078   2.678   6.065   0.317
11357SOL    HW236079   2.586   6.183   0.342
11358SOL     OW36080   3.496   6.204   1.200
11358SOL    HW136081   3.478   6.137   1.266
11358SOL    HW236082   3.582   6.174   1.164
11359SOL     OW36083   2.158   7.141   1.751
11359SOL    HW136084   2.110   7.205   1.806
11359SOL    HW236085   2.085   7.090   1.712
11360SOL     OW36086   2.558   6.062   1.265
11360SOL    HW136087   2.511   5.985   1.231
11360SOL    HW236088   2.559   6.122   1.188
11361SOL     OW36089   2.783   7.285   1.472
11361SOL    HW136090   2.768   7.251   1.383
11361SOL    HW236091   2.767   7.381   1.462
11362SOL     OW36092   2.304   6.057   0.197
11362SOL    HW136093   2.371   6.127   0.206
11362SOL    HW236094   2.226   6.102   0.234
11363SOL     OW36095   1.969   6.705   1.497
11363SOL    HW136096   2.002   6.647   1.566
11363SOL    HW236097   1.990   6.656   1.414
11364SOL     OW36098   3.171   6.625   1.220
11364SOL    HW136099   3.195   6.571   1.141
11364SOL    HW236100   3.103   6.684   1.184
11365SOL     OW36101   3.605   7.336   1.123
11365SOL    HW136102   3.680   7.361   1.064
11365SOL    HW236103   3.601   7.239   1.108
11366SOL     OW36104   3.107   7.319   1.108
11366SOL    HW136105   3.193   7.347   1.071
11366SOL    HW236106   3.121   7.223   1.122
11367SOL     OW36107   1.962   6.842   1.040
11367SOL    HW136108   1.933   6.861   1.132
11367SOL    HW236109   1.881   6.807   1.001
11368SOL     OW36110   2.552   7.220   1.742
11368SOL    HW136111   2.513   7.304   1.713
11368SOL    HW236112   2.640   7.221   1.701
11369SOL     OW36113   2.773   5.696   0.149
11369SOL    HW136114   2.824   5.658   0.077
11369SOL    HW236115   2.803   5.641   0.223
11370SOL     OW36116   3.542   5.728   0.499
11370SOL    HW136117   3.622   5.716   0.446
11370SOL    HW236118   3.540   5.645   0.551
11371SOL     OW36119   3.220   7.159   0.496
11371SOL    HW136120   3.287   7.169   0.425
11371SOL    HW236121   3.186   7.249   0.504
11372SOL     OW36122   2.026   7.394   1.830
11372SOL    HW136123   1.979   7.319   1.870
11372SOL    HW236124   2.063   7.437   1.909
11373SOL     OW36125   3.126   6.519   0.669
11373SOL    HW136126   3.197   6.457   0.646
11373SOL    HW236127   3.142   6.585   0.600
11374SOL     OW36128   2.677   6.839   1.432
11374SOL    HW136129   2.645   6.884   1.513
11374SOL    HW236130   2.607   6.864   1.369
11375SOL     OW36131   2.552   7.203   0.173
11375SOL    HW136132   2.562   7.214   0.079
11375SOL    HW236133   2.478   7.139   0.177
11376SOL     OW36134   3.482   7.302   1.383
11376SOL    HW136135   3.527   7.319   1.299
11376SOL    HW236136   3.466   7.392   1.418
11377SOL     OW36137   3.701   5.750   0.975
11377SOL    HW136138   3.724   5.663   0.937
11377SOL    HW236139   3.617   5.773   0.930
11378SOL     OW36140   2.116   5.904   0.699
11378SOL    HW136141   2.032   5.950   0.681
11378SOL    HW236142   2.119   5.904   0.796
11379SOL     OW36143   3.073   7.191   0.032
11379SOL    HW136144   3.077   7.096   0.057
11379SOL    HW236145   3.006   7.190  11.063
11380SOL     OW36146   2.674   6.576   1.386
11380SOL    HW136147   2.717   6.572   1.300
11380SOL    HW236148   2.676   6.672   1.406
11381SOL     OW36149   2.767   6.483   0.266
11381SOL    HW136150   2.836   6.519   0.207
11381SOL    HW236151   2.814   6.407   0.307
11382SOL     OW36152   3.380   7.186   0.048
11382SOL    HW136153   3.284   7.200   0.043
11382SOL    HW236154   3.410   7.203  11.059
11383SOL     OW36155   2.195   6.857   1.491
11383SOL    HW136156   2.198   6.936   1.433
11383SOL    HW236157   2.103   6.826   1.482
11384SOL     OW36158   3.468   6.893   1.262
11384SOL    HW136159   3.507   6.862   1.345
11384SOL    HW236160   3.406   6.962   1.295
11385SOL     OW36161   2.906   6.704   0.719
11385SOL    HW136162   2.835   6.646   0.751
11385SOL    HW236163   2.974   6.641   0.689
11386SOL     OW36164   2.895   5.822   0.996
11386SOL    HW136165   2.879   5.780   0.908
11386SOL    HW236166   2.894   5.742   1.053
11387SOL     OW36167   2.480   7.089   0.484
11387SOL    HW136168   2.527   7.038   0.415
11387SOL    HW236169   2.397   7.114   0.440
11388SOL     OW36170   3.574   5.958   1.386
11388SOL    HW136171   3.632   6.036   1.382
11388SOL    HW236172   3.624   5.895   1.329
11389SOL     OW36173   2.120   6.961   0.270
11389SOL    HW136174   2.025   6.954   0.247
11389SOL    HW236175   2.116   6.982   0.365
11390SOL     OW36176   2.011   6.564   1.765
11390SOL    HW136177   1.918   6.538   1.782
11390SOL    HW236178   2.015   6.644   1.819
11391SOL     OW36179   2.537   5.760   1.493
11391SOL    HW136180   2.622   5.728   1.456
11391SOL    HW236181   2.566   5.808   1.572
11392SOL     OW36182   1.986   5.950   0.011
11392SOL    HW136183   1.903   5.903  11.093
11392SOL    HW236184   1.962   6.040  11.091
11393SOL     OW36185   3.305   6.440   1.377
11393SOL    HW136186   3.255   6.495   1.315
11393SOL    HW236187   3.395   6.473   1.365
11394SOL     OW36188   1.920   5.754   0.326
11394SOL    HW136189   1.916   5.835   0.274
11394SOL    HW236190   2.008   5.719   0.301
11395SOL     OW36191   3.057   6.935   0.129
11395SOL    HW136192   2.966   6.904   0.117
11395SOL    HW236193   3.071   6.919   0.224
11396SOL     OW36194   2.479   6.390   1.445
11396SOL    HW136195   2.532   6.470   1.429
11396SOL    HW236196   2.551   6.324   1.451
11397SOL     OW36197   3.368   7.374   0.962
11397SOL    HW136198   3.405   7.403   0.877
11397SOL    HW236199   3.447   7.353   1.014
11398SOL     OW36200   2.573   6.137   1.713
11398SOL    HW136201   2.630   6.199   1.762
11398SOL    HW236202   2.603   6.049   1.741
11399SOL     OW36203   3.324   6.763   1.625
11399SOL    HW136204   3.316   6.771   1.722
11399SOL    HW236205   3.418   6.788   1.611
11400SOL     OW36206   2.240   7.328   1.558
11400SOL    HW136207   2.149   7.362   1.550
11400SOL    HW236208   2.225   7.246   1.610
11401SOL     OW36209   3.570   6.467   1.239
11401SOL    HW136210   3.533   6.380   1.213
11401SOL    HW236211   3.527   6.528   1.176
11402SOL     OW36212   3.077   5.899   0.488
11402SOL    HW136213   3.146   5.832   0.474
11402SOL    HW236214   3.113   5.954   0.560
11403SOL     OW36215   2.439   6.327   0.684
11403SOL    HW136216   2.474   6.415   0.666
11403SOL    HW236217   2.376   6.314   0.611
11404SOL     OW36218   3.637   5.966   1.646
11404SOL    HW136219   3.605   5.973   1.555
11404SOL    HW236220   3.563   5.920   1.689
11405SOL     OW36221   3.606   6.514   1.503
11405SOL    HW136222   3.616   6.610   1.495
11405SOL    HW236223   3.618   6.485   1.411
11406SOL     OW36224   2.756   6.938   0.044
11406SOL    HW136225   2.682   6.947   0.106
11406SOL    HW236226   2.769   7.028   0.011
11407SOL     OW36227   2.511   7.377   0.916
11407SOL    HW136228   2.499   7.471   0.897
11407SOL    HW236229   2.607   7.368   0.924
11408SOL     OW36230   2.730   6.537   0.849
11408SOL    HW136231   2.785   6.467   0.889
11408SOL    HW236232   2.711   6.593   0.925
11409SOL     OW36233   2.904   6.569   0.056
11409SOL    HW136234   2.918   6.634  11.087
11409SOL    HW236235   2.990   6.524   0.059
11410SOL     OW36236   3.720   7.149   0.829
11410SOL    HW136237   3.627   7.145   0.804
11410SOL    HW236238   3.727   7.078   0.895
11411SOL     OW36239   2.095   6.880   1.859
11411SOL    HW136240   2.022   6.899   1.798
11411SOL    HW236241   2.064   6.923   1.941
11412SOL     OW36242   1.956   6.823   0.659
11412SOL    HW136243   1.966   6.773   0.741
11412SOL    HW236244   2.030   6.790   0.607
11413SOL     OW36245   2.536   6.978   1.614
11413SOL    HW136246   2.457   6.926   1.636
11413SOL    HW236247   2.518   7.061   1.662
11414SOL     OW36248   3.692   5.756   1.241
11414SOL    HW136249   3.706   5.661   1.246
11414SOL    HW236250   3.698   5.769   1.143
11415SOL     OW36251   2.293   6.020   0.511
11415SOL    HW136252   2.348   5.950   0.473
11415SOL    HW236253   2.243   5.974   0.581
11416SOL     OW36254   3.586   7.071   1.077
11416SOL    HW136255   3.505   7.040   1.035
11416SOL    HW236256   3.583   7.019   1.159
11417SOL     OW36257   2.185   6.134   1.278
11417SOL    HW136258   2.263   6.092   1.318
11417SOL    HW236259   2.195   6.111   1.184
11418SOL     OW36260   2.682   7.161   0.671
11418SOL    HW136261   2.667   7.155   0.576
11418SOL    HW236262   2.596   7.133   0.705
11419SOL     OW36263   3.292   5.810   1.100
11419SOL    HW136264   3.334   5.738   1.148
11419SOL    HW236265   3.250   5.863   1.170
11420SOL     OW36266   2.883   5.594   1.145
11420SOL    HW136267   2.825   5.520   1.124
11420SOL    HW236268   2.972   5.551   1.144
11421SOL     OW36269   2.632   6.926   0.331
11421SOL    HW136270   2.610   6.830   0.333
11421SOL    HW236271   2.713   6.927   0.384
11422SOL     OW36272   2.459   7.146   1.257
11422SOL    HW136273   2.460   7.230   1.305
11422SOL    HW236274   2.551   7.142   1.225
11423SOL     OW36275   3.177   5.614   0.181
11423SOL    HW136276   3.195   5.582   0.093
11423SOL    HW236277   3.088   5.578   0.199
11424SOL     OW36278   3.169   6.054   0.699
11424SOL    HW136279   3.114   6.135   0.699
11424SOL    HW236280   3.154   6.020   0.790
11425SOL     OW36281   3.461   5.791   0.868
11425SOL    HW136282   3.388   5.807   0.929
11425SOL    HW236283   3.460   5.871   0.813
11426SOL     OW36284   1.915   6.671   0.258
11426SOL    HW136285   2.011   6.664   0.273
11426SOL    HW236286   1.886   6.583   0.286
11427SOL     OW36287   2.756   7.222   0.360
11427SOL    HW136288   2.679   7.206   0.302
11427SOL    HW236289   2.731   7.308   0.404
11428SOL     OW36290   2.096   6.238   1.983
11428SOL    HW136291   2.004   6.235   2.011
11428SOL    HW236292   2.096   6.194   1.897
11429SOL     OW36293   2.105   5.866   2.857
11429SOL    HW136294   2.122   5.845   2.951
11429SOL    HW236295   2.016   5.826   2.846
11430SOL     OW36296   1.853   5.964   2.505
11430SOL    HW136297   1.775   6.000   2.552
11430SOL    HW236298   1.812   5.893   2.455
11431SOL     OW36299   2.429   6.878   3.056
11431SOL    HW136300   2.339   6.871   3.022
11431SOL    HW236301   2.436   6.973   3.076
11432SOL     OW36302   3.408   7.114   2.582
11432SOL    HW136303   3.374   7.086   2.670
11432SOL    HW236304   3.335   7.095   2.521
11433SOL     OW36305   2.995   6.259   2.571
11433SOL    HW136306   3.025   6.349   2.546
11433SOL    HW236307   2.960   6.276   2.660
11434SOL     OW36308   3.641   6.200   2.104
11434SOL    HW136309   3.624   6.193   2.008
11434SOL    HW236310   3.589   6.127   2.139
11435SOL     OW36311   2.620   6.760   2.904
11435SOL    HW136312   2.550   6.801   2.959
11435SOL    HW236313   2.642   6.835   2.845
11436SOL     OW36314   2.748   6.330   3.662
11436SOL    HW136315   2.722   6.392   3.731
11436SOL    HW236316   2.771   6.388   3.587
11437SOL     OW36317   2.548   6.608   2.509
11437SOL    HW136318   2.613   6.594   2.581
11437SOL    HW236319   2.480   6.662   2.552
11438SOL     OW36320   2.558   6.735   3.662
11438SOL    HW136321   2.604   6.819   3.681
11438SOL    HW236322   2.469   6.765   3.633
11439SOL     OW36323   2.181   7.012   2.932
11439SOL    HW136324   2.107   6.971   2.886
11439SOL    HW236325   2.227   7.065   2.864
11440SOL     OW36326   3.334   7.089   3.228
11440SOL    HW136327   3.388   7.169   3.244
11440SOL    HW236328   3.270   7.093   3.300
11441SOL     OW36329   2.303   5.985   3.386
11441SOL    HW136330   2.376   5.922   3.383
11441SOL    HW236331   2.225   5.928   3.370
11442SOL     OW36332   3.486   6.035   2.606
11442SOL    HW136333   3.417   6.062   2.544
11442SOL    HW236334   3.462   6.085   2.685
11443SOL     OW36335   2.082   7.299   2.335
11443SOL    HW136336   2.111   7.377   2.388
11443SOL    HW236337   2.142   7.304   2.259
11444SOL     OW36338   2.984   6.940   3.531
11444SOL    HW136339   3.029   6.935   3.617
11444SOL    HW236340   2.943   6.852   3.528
11445SOL     OW36341   2.114   7.021   2.394
11445SOL    HW136342   2.107   7.118   2.395
11445SOL    HW236343   2.045   6.994   2.455
11446SOL     OW36344   2.126   6.674   2.755
11446SOL    HW136345   2.133   6.599   2.816
11446SOL    HW236346   2.072   6.737   2.807
11447SOL     OW36347   2.453   7.387   3.260
11447SOL    HW136348   2.389   7.354   3.326
11447SOL    HW236349   2.477   7.474   3.297
11448SOL     OW36350   2.433   6.569   1.968
11448SOL    HW136351   2.484   6.620   1.901
11448SOL    HW236352   2.472   6.609   2.049
11449SOL     OW36353   3.470   5.692   3.359
11449SOL    HW136354   3.461   5.772   3.305
11449SOL    HW236355   3.479   5.731   3.448
11450SOL     OW36356   1.973   6.233   2.420
11450SOL    HW136357   1.945   6.143   2.441
11450SOL    HW236358   1.971   6.276   2.508
11451SOL     OW36359   3.710   7.330   2.207
11451SOL    HW136360   3.779   7.311   2.272
11451SOL    HW236361   3.726   7.424   2.188
11452SOL     OW36362   1.933   7.194   1.981
11452SOL    HW136363   1.911   7.100   1.988
11452SOL    HW236364   1.893   7.231   2.061
11453SOL     OW36365   3.541   6.489   2.503
11453SOL    HW136366   3.620   6.462   2.454
11453SOL    HW236367   3.505   6.556   2.443
11454SOL     OW36368   3.501   6.705   2.311
11454SOL    HW136369   3.591   6.703   2.275
11454SOL    HW236370   3.509   6.776   2.378
11455SOL     OW36371   1.987   6.334   3.442
11455SOL    HW136372   2.080   6.359   3.449
11455SOL    HW236373   1.944   6.410   3.484
11456SOL     OW36374   2.450   6.997   2.610
11456SOL    HW136375   2.412   6.908   2.627
11456SOL    HW236376   2.438   7.005   2.514
11457SOL     OW36377   3.151   6.816   3.279
11457SOL    HW136378   3.178   6.742   3.223
11457SOL    HW236379   3.203   6.800   3.360
11458SOL     OW36380   2.698   5.581   2.356
11458SOL    HW136381   2.727   5.674   2.351
11458SOL    HW236382   2.603   5.589   2.373
11459SOL     OW36383   2.040   6.565   3.120
11459SOL    HW136384   2.129   6.526   3.117
11459SOL    HW236385   1.985   6.496   3.082
11460SOL     OW36386   3.412   6.545   2.048
11460SOL    HW136387   3.332   6.498   2.080
11460SOL    HW236388   3.445   6.586   2.129
11461SOL     OW36389   3.024   7.392   3.473
11461SOL    HW136390   3.040   7.459   3.404
11461SOL    HW236391   3.057   7.311   3.431
11462SOL     OW36392   2.194   5.818   3.645
11462SOL    HW136393   2.240   5.889   3.690
11462SOL    HW236394   2.102   5.837   3.670
11463SOL     OW36395   3.329   7.012   2.825
11463SOL    HW136396   3.262   7.030   2.895
11463SOL    HW236397   3.303   6.922   2.796
11464SOL     OW36398   3.529   7.317   2.465
11464SOL    HW136399   3.513   7.283   2.376
11464SOL    HW236400   3.495   7.243   2.519
11465SOL     OW36401   2.446   6.293   2.115
11465SOL    HW136402   2.467   6.382   2.086
11465SOL    HW236403   2.387   6.307   2.192
11466SOL     OW36404   3.138   5.915   2.773
11466SOL    HW136405   3.049   5.884   2.796
11466SOL    HW236406   3.193   5.874   2.843
11467SOL     OW36407   3.437   7.234   2.164
11467SOL    HW136408   3.530   7.261   2.169
11467SOL    HW236409   3.426   7.222   2.068
11468SOL     OW36410   2.666   6.207   3.321
11468SOL    HW136411   2.645   6.169   3.410
11468SOL    HW236412   2.617   6.148   3.262
11469SOL     OW36413   3.260   6.066   3.528
11469SOL    HW136414   3.262   6.125   3.606
11469SOL    HW236415   3.320   5.994   3.556
11470SOL     OW36416   2.822   6.469   3.439
11470SOL    HW136417   2.859   6.387   3.399
11470SOL    HW236418   2.780   6.511   3.361
11471SOL     OW36419   2.846   5.986   3.087
11471SOL    HW136420   2.755   6.006   3.114
11471SOL    HW236421   2.835   5.936   3.005
11472SOL     OW36422   2.897   6.281   2.266
11472SOL    HW136423   2.918   6.297   2.359
11472SOL    HW236424   2.819   6.223   2.273
11473SOL     OW36425   1.976   6.387   2.640
11473SOL    HW136426   2.044   6.397   2.710
11473SOL    HW236427   1.916   6.460   2.662
11474SOL     OW36428   1.972   7.428   3.428
11474SOL    HW136429   1.986   7.408   3.523
11474SOL    HW236430   1.878   7.413   3.418
11475SOL     OW36431   2.747   5.978   2.059
11475SOL    HW136432   2.790   6.033   1.991
11475SOL    HW236433   2.781   5.891   2.035
11476SOL     OW36434   3.584   6.178   3.699
11476SOL    HW136435   3.543   6.253   3.652
11476SOL    HW236436   3.609   6.121   3.625
11477SOL     OW36437   3.223   6.732   2.422
11477SOL    HW136438   3.304   6.722   2.370
11477SOL    HW236439   3.173   6.796   2.369
11478SOL     OW36440   2.416   5.795   2.757
11478SOL    HW136441   2.421   5.805   2.855
11478SOL    HW236442   2.401   5.885   2.727
11479SOL     OW36443   2.845   7.021   2.347
11479SOL    HW136444   2.811   7.083   2.280
11479SOL    HW236445   2.833   7.073   2.429
11480SOL     OW36446   2.209   7.394   2.724
11480SOL    HW136447   2.243   7.304   2.742
11480SOL    HW236448   2.290   7.446   2.732
11481SOL     OW36449   3.679   6.626   2.738
11481SOL    HW136450   3.619   6.613   2.663
11481SOL    HW236451   3.621   6.613   2.814
11482SOL     OW36452   3.084   7.140   3.359
11482SOL    HW136453   3.059   7.080   3.430
11482SOL    HW236454   3.046   7.095   3.282
11483SOL     OW36455   2.168   6.510   2.068
11483SOL    HW136456   2.253   6.537   2.105
11483SOL    HW236457   2.151   6.423   2.108
11484SOL     OW36458   3.336   6.337   2.568
11484SOL    HW136459   3.338   6.306   2.660
11484SOL    HW236460   3.418   6.391   2.563
11485SOL     OW36461   2.320   6.857   3.584
11485SOL    HW136462   2.278   6.866   3.495
11485SOL    HW236463   2.241   6.864   3.641
11486SOL     OW36464   2.963   7.343   2.097
11486SOL    HW136465   2.890   7.293   2.137
11486SOL    HW236466   2.980   7.295   2.015
11487SOL     OW36467   2.033   5.874   3.360
11487SOL    HW136468   1.958   5.924   3.395
11487SOL    HW236469   2.017   5.786   3.399
11488SOL     OW36470   3.481   6.947   1.959
11488SOL    HW136471   3.445   7.032   1.929
11488SOL    HW236472   3.418   6.882   1.924
11489SOL     OW36473   2.316   7.325   2.179
11489SOL    HW136474   2.367   7.371   2.247
11489SOL    HW236475   2.385   7.294   2.119
11490SOL     OW36476   3.256   5.705   2.308
11490SOL    HW136477   3.251   5.659   2.223
11490SOL    HW236478   3.352   5.714   2.321
11491SOL     OW36479   2.106   7.386   3.089
11491SOL    HW136480   2.160   7.319   3.134
11491SOL    HW236481   2.090   7.344   3.003
11492SOL     OW36482   2.819   7.293   2.746
11492SOL    HW136483   2.903   7.247   2.755
11492SOL    HW236484   2.776   7.239   2.676
11493SOL     OW36485   2.230   6.298   2.301
11493SOL    HW136486   2.265   6.212   2.332
11493SOL    HW236487   2.140   6.292   2.336
11494SOL     OW36488   3.405   5.843   3.593
11494SOL    HW136489   3.402   5.847   3.691
11494SOL    HW236490   3.344   5.769   3.577
11495SOL     OW36491   2.492   5.707   1.949
11495SOL    HW136492   2.567   5.651   1.975
11495SOL    HW236493   2.458   5.661   1.869
11496SOL     OW36494   2.637   5.849   3.603
11496SOL    HW136495   2.717   5.795   3.617
11496SOL    HW236496   2.583   5.826   3.681
11497SOL     OW36497   2.747   7.129   3.057
11497SOL    HW136498   2.747   7.103   2.964
11497SOL    HW236499   2.811   7.069   3.098
11498SOL     OW36500   3.193   6.185   3.289
11498SOL    HW136501   3.230   6.150   3.373
11498SOL    HW236502   3.245   6.266   3.274
11499SOL     OW36503   2.663   7.001   2.778
11499SOL    HW136504   2.751   6.989   2.737
11499SOL    HW236505   2.603   6.997   2.702
11500SOL     OW36506   2.799   6.117   2.770
11500SOL    HW136507   2.775   6.107   2.675
11500SOL    HW236508   2.823   6.026   2.791
11501SOL     OW36509   2.425   5.633   2.368
11501SOL    HW136510   2.356   5.644   2.436
11501SOL    HW236511   2.409   5.711   2.311
11502SOL     OW36512   3.306   6.755   1.888
11502SOL    HW136513   3.335   6.683   1.948
11502SOL    HW236514   3.217   6.777   1.919
11503SOL     OW36515   2.792   5.835   2.350
11503SOL    HW136516   2.782   5.893   2.273
11503SOL    HW236517   2.888   5.842   2.366
11504SOL     OW36518   2.943   6.260   3.323
11504SOL    HW136519   2.890   6.179   3.329
11504SOL    HW236520   3.035   6.228   3.320
11505SOL     OW36521   3.081   7.179   2.657
11505SOL    HW136522   3.087   7.233   2.576
11505SOL    HW236523   3.165   7.198   2.701
11506SOL     OW36524   2.335   6.751   2.602
11506SOL    HW136525   2.260   6.720   2.658
11506SOL    HW236526   2.298   6.735   2.512
11507SOL     OW36527   3.123   7.397   2.465
11507SOL    HW136528   3.174   7.455   2.405
11507SOL    HW236529   3.096   7.460   2.532
11508SOL     OW36530   2.912   6.126   1.894
11508SOL    HW136531   2.874   6.213   1.869
11508SOL    HW236532   2.987   6.148   1.951
11509SOL     OW36533   1.925   6.149   3.256
11509SOL    HW136534   2.020   6.131   3.242
11509SOL    HW236535   1.929   6.226   3.317
11510SOL     OW36536   2.433   5.819   3.028
11510SOL    HW136537   2.478   5.752   3.081
11510SOL    HW236538   2.340   5.806   3.057
11511SOL     OW36539   2.746   6.045   2.523
11511SOL    HW136540   2.701   6.093   2.451
11511SOL    HW236541   2.758   5.957   2.485
11512SOL     OW36542   2.895   5.648   2.628
11512SOL    HW136543   2.843   5.631   2.548
11512SOL    HW236544   2.871   5.572   2.684
11513SOL     OW36545   3.275   6.764   2.739
11513SOL    HW136546   3.214   6.695   2.767
11513SOL    HW236547   3.272   6.756   2.643
11514SOL     OW36548   3.348   6.156   2.833
11514SOL    HW136549   3.281   6.091   2.859
11514SOL    HW236550   3.405   6.163   2.912
11515SOL     OW36551   3.698   6.415   2.267
11515SOL    HW136552   3.758   6.359   2.319
11515SOL    HW236553   3.677   6.354   2.193
11516SOL     OW36554   2.348   7.003   1.983
11516SOL    HW136555   2.268   6.990   2.038
11516SOL    HW236556   2.312   6.988   1.895
11517SOL     OW36557   3.538   6.874   2.522
11517SOL    HW136558   3.636   6.877   2.525
11517SOL    HW236559   3.510   6.963   2.550
11518SOL     OW36560   3.263   6.184   1.925
11518SOL    HW136561   3.212   6.146   2.000
11518SOL    HW236562   3.354   6.174   1.956
11519SOL     OW36563   2.362   5.806   2.164
11519SOL    HW136564   2.434   5.789   2.100
11519SOL    HW236565   2.337   5.897   2.138
11520SOL     OW36566   3.591   6.821   3.444
11520SOL    HW136567   3.679   6.780   3.450
11520SOL    HW236568   3.615   6.914   3.454
11521SOL     OW36569   2.935   6.953   3.201
11521SOL    HW136570   2.858   6.915   3.246
11521SOL    HW236571   3.008   6.900   3.240
11522SOL     OW36572   3.464   7.180   3.502
11522SOL    HW136573   3.476   7.227   3.418
11522SOL    HW236574   3.549   7.133   3.510
11523SOL     OW36575   2.990   6.815   2.957
11523SOL    HW136576   2.926   6.841   3.024
11523SOL    HW236577   2.954   6.855   2.877
11524SOL     OW36578   3.462   6.680   2.944
11524SOL    HW136579   3.474   6.744   3.016
11524SOL    HW236580   3.411   6.733   2.881
11525SOL     OW36581   2.777   5.682   3.261
11525SOL    HW136582   2.810   5.660   3.172
11525SOL    HW236583   2.855   5.727   3.300
11526SOL     OW36584   2.861   6.700   3.595
11526SOL    HW136585   2.772   6.728   3.621
11526SOL    HW236586   2.845   6.624   3.536
11527SOL     OW36587   2.563   6.635   2.204
11527SOL    HW136588   2.560   6.617   2.299
11527SOL    HW236589   2.646   6.588   2.177
11528SOL     OW36590   2.278   6.402   3.127
11528SOL    HW136591   2.354   6.398   3.190
11528SOL    HW236592   2.240   6.313   3.136
11529SOL     OW36593   3.143   5.978   3.121
11529SOL    HW136594   3.158   6.055   3.180
11529SOL    HW236595   3.049   5.987   3.097
11530SOL     OW36596   1.939   7.159   3.203
11530SOL    HW136597   1.939   7.254   3.181
11530SOL    HW236598   2.034   7.137   3.197
11531SOL     OW36599   2.231   6.701   2.363
11531SOL    HW136600   2.243   6.762   2.289
11531SOL    HW236601   2.233   6.614   2.322
11532SOL     OW36602   2.395   6.128   2.700
11532SOL    HW136603   2.426   6.193   2.634
11532SOL    HW236604   2.457   6.144   2.774
11533SOL     OW36605   3.092   6.924   2.257
11533SOL    HW136606   3.136   7.004   2.290
11533SOL    HW236607   3.002   6.936   2.289
11534SOL     OW36608   3.151   7.058   3.030
11534SOL    HW136609   3.212   7.058   3.106
11534SOL    HW236610   3.093   6.983   3.050
11535SOL     OW36611   3.446   6.196   2.337
11535SOL    HW136612   3.393   6.241   2.406
11535SOL    HW236613   3.469   6.269   2.279
11536SOL     OW36614   2.199   7.110   3.172
11536SOL    HW136615   2.195   7.067   3.083
11536SOL    HW236616   2.295   7.127   3.178
11537SOL     OW36617   2.304   6.316   3.485
11537SOL    HW136618   2.360   6.358   3.418
11537SOL    HW236619   2.336   6.225   3.484
11538SOL     OW36620   3.485   6.370   3.551
11538SOL    HW136621   3.396   6.408   3.548
11538SOL    HW236622   3.527   6.414   3.474
11539SOL     OW36623   2.862   5.700   3.625
11539SOL    HW136624   2.926   5.770   3.604
11539SOL    HW236625   2.903   5.624   3.581
11540SOL     OW36626   2.364   5.599   3.621
11540SOL    HW136627   2.322   5.541   3.555
11540SOL    HW236628   2.302   5.674   3.622
11541SOL     OW36629   2.435   6.483   2.906
11541SOL    HW136630   2.478   6.569   2.915
11541SOL    HW236631   2.391   6.471   2.991
11542SOL     OW36632   3.224   6.440   2.873
11542SOL    HW136633   3.136   6.409   2.847
11542SOL    HW236634   3.271   6.357   2.884
11543SOL     OW36635   3.096   6.097   2.125
11543SOL    HW136636   3.098   6.018   2.183
11543SOL    HW236637   3.045   6.158   2.180
11544SOL     OW36638   2.165   5.791   3.110
11544SOL    HW136639   2.119   5.821   3.190
11544SOL    HW236640   2.138   5.697   3.107
11545SOL     OW36641   1.889   6.897   3.141
11545SOL    HW136642   1.913   6.842   3.218
11545SOL    HW236643   1.903   6.988   3.174
11546SOL     OW36644   2.572   6.226   2.896
11546SOL    HW136645   2.658   6.207   2.852
11546SOL    HW236646   2.556   6.321   2.879
11547SOL     OW36647   3.631   6.536   3.721
11547SOL    HW136648   3.579   6.481   3.660
11547SOL    HW236649   3.570   6.545   3.795
11548SOL     OW36650   2.152   5.651   2.472
11548SOL    HW136651   2.134   5.743   2.501
11548SOL    HW236652   2.165   5.606   2.558
11549SOL     OW36653   3.457   5.965   2.206
11549SOL    HW136654   3.492   5.897   2.265
11549SOL    HW236655   3.451   6.043   2.266
11550SOL     OW36656   2.928   6.344   2.832
11550SOL    HW136657   2.903   6.364   2.924
11550SOL    HW236658   2.895   6.252   2.825
11551SOL     OW36659   2.837   7.158   3.564
11551SOL    HW136660   2.826   7.208   3.481
11551SOL    HW236661   2.871   7.072   3.534
11552SOL     OW36662   3.716   7.074   3.465
11552SOL    HW136663   3.737   7.103   3.374
11552SOL    HW236664   3.792   7.109   3.515
11553SOL     OW36665   2.209   6.483   3.663
11553SOL    HW136666   2.291   6.506   3.710
11553SOL    HW236667   2.239   6.409   3.607
11554SOL     OW36668   3.357   5.841   1.988
11554SOL    HW136669   3.287   5.787   2.028
11554SOL    HW236670   3.397   5.886   2.065
11555SOL     OW36671   3.143   6.425   1.881
11555SOL    HW136672   3.186   6.338   1.892
11555SOL    HW236673   3.182   6.454   1.796
11556SOL     OW36674   2.925   6.955   2.710
11556SOL    HW136675   2.945   6.878   2.653
11556SOL    HW236676   2.994   7.020   2.688
11557SOL     OW36677   2.151   6.406   2.863
11557SOL    HW136678   2.246   6.422   2.854
11557SOL    HW236679   2.149   6.311   2.883
11558SOL     OW36680   2.182   6.128   2.862
11558SOL    HW136681   2.158   6.034   2.853
11558SOL    HW236682   2.250   6.136   2.791
11559SOL     OW36683   3.015   5.953   3.554
11559SOL    HW136684   2.969   6.004   3.623
11559SOL    HW236685   3.103   5.996   3.553
11560SOL     OW36686   3.023   5.786   3.341
11560SOL    HW136687   3.023   5.849   3.416
11560SOL    HW236688   3.069   5.836   3.273
11561SOL     OW36689   1.864   6.908   2.047
11561SOL    HW136690   1.774   6.930   2.014
11561SOL    HW236691   1.849   6.821   2.087
11562SOL     OW36692   1.956   7.373   2.812
11562SOL    HW136693   1.923   7.294   2.762
11562SOL    HW236694   2.046   7.384   2.774
11563SOL     OW36695   2.342   7.169   2.785
11563SOL    HW136696   2.414   7.230   2.809
11563SOL    HW236697   2.387   7.108   2.724
11564SOL     OW36698   2.834   6.355   3.094
11564SOL    HW136699   2.888   6.324   3.169
11564SOL    HW236700   2.746   6.327   3.122
11565SOL     OW36701   1.888   6.113   2.974
11565SOL    HW136702   1.967   6.101   2.920
11565SOL    HW236703   1.924   6.133   3.061
11566SOL     OW36704   2.075   6.101   3.573
11566SOL    HW136705   2.131   6.056   3.508
11566SOL    HW236706   2.032   6.170   3.520
11567SOL     OW36707   3.248   6.503   3.518
11567SOL    HW136708   3.273   6.597   3.517
11567SOL    HW236709   3.241   6.482   3.423
11568SOL     OW36710   2.659   6.139   2.261
11568SOL    HW136711   2.684   6.086   2.183
11568SOL    HW236712   2.587   6.193   2.225
11569SOL     OW36713   3.496   6.206   3.062
11569SOL    HW136714   3.476   6.142   3.131
11569SOL    HW236715   3.582   6.174   3.029
11570SOL     OW36716   2.116   7.130   3.581
11570SOL    HW136717   2.100   7.194   3.653
11570SOL    HW236718   2.122   7.046   3.630
11571SOL     OW36719   2.552   6.065   3.120
11571SOL    HW136720   2.505   5.987   3.087
11571SOL    HW236721   2.546   6.127   3.044
11572SOL     OW36722   2.764   7.282   3.329
11572SOL    HW136723   2.767   7.254   3.237
11572SOL    HW236724   2.774   7.378   3.323
11573SOL     OW36725   2.298   6.051   2.065
11573SOL    HW136726   2.368   6.118   2.065
11573SOL    HW236727   2.219   6.106   2.067
11574SOL     OW36728   1.970   6.718   3.328
11574SOL    HW136729   1.985   6.663   3.408
11574SOL    HW236730   1.999   6.658   3.256
11575SOL     OW36731   3.175   6.621   3.094
11575SOL    HW136732   3.199   6.570   3.014
11575SOL    HW236733   3.112   6.685   3.057
11576SOL     OW36734   3.174   6.438   2.157
11576SOL    HW136735   3.088   6.417   2.196
11576SOL    HW236736   3.154   6.444   2.062
11577SOL     OW36737   3.627   7.334   2.996
11577SOL    HW136738   3.698   7.358   2.933
11577SOL    HW236739   3.626   7.236   2.986
11578SOL     OW36740   3.098   7.314   2.980
11578SOL    HW136741   3.185   7.335   2.945
11578SOL    HW236742   3.105   7.218   2.997
11579SOL     OW36743   1.963   6.841   2.893
11579SOL    HW136744   1.932   6.863   2.984
11579SOL    HW236745   1.891   6.787   2.859
11580SOL     OW36746   2.554   7.221   3.606
11580SOL    HW136747   2.516   7.308   3.591
11580SOL    HW236748   2.644   7.231   3.572
11581SOL     OW36749   3.542   5.730   2.359
11581SOL    HW136750   3.617   5.714   2.301
11581SOL    HW236751   3.539   5.647   2.411
11582SOL     OW36752   3.225   7.162   2.340
11582SOL    HW136753   3.284   7.185   2.266
11582SOL    HW236754   3.184   7.248   2.361
11583SOL     OW36755   2.015   7.379   3.691
11583SOL    HW136756   1.970   7.308   3.741
11583SOL    HW236757   2.061   7.425   3.763
11584SOL     OW36758   3.115   6.499   2.527
11584SOL    HW136759   3.197   6.447   2.541
11584SOL    HW236760   3.151   6.580   2.485
11585SOL     OW36761   2.676   6.853   3.278
11585SOL    HW136762   2.650   6.898   3.361
11585SOL    HW236763   2.600   6.871   3.222
11586SOL     OW36764   2.525   7.207   2.014
11586SOL    HW136765   2.543   7.214   1.918
11586SOL    HW236766   2.465   7.128   2.013
11587SOL     OW36767   3.485   7.309   3.252
11587SOL    HW136768   3.537   7.325   3.171
11587SOL    HW236769   3.473   7.400   3.287
11588SOL     OW36770   3.709   5.753   2.837
11588SOL    HW136771   3.730   5.665   2.802
11588SOL    HW236772   3.620   5.772   2.800
11589SOL     OW36773   2.109   5.907   2.570
11589SOL    HW136774   2.017   5.935   2.558
11589SOL    HW236775   2.119   5.907   2.666
11590SOL     OW36776   3.047   7.203   1.885
11590SOL    HW136777   3.053   7.108   1.905
11590SOL    HW236778   2.988   7.205   1.807
11591SOL     OW36779   2.686   6.588   3.239
11591SOL    HW136780   2.718   6.590   3.149
11591SOL    HW236781   2.684   6.683   3.263
11592SOL     OW36782   2.775   6.500   2.129
11592SOL    HW136783   2.850   6.539   2.080
11592SOL    HW236784   2.816   6.424   2.173
11593SOL     OW36785   3.416   7.210   1.891
11593SOL    HW136786   3.321   7.227   1.888
11593SOL    HW236787   3.439   7.210   1.795
11594SOL     OW36788   2.200   6.866   3.348
11594SOL    HW136789   2.196   6.936   3.282
11594SOL    HW236790   2.118   6.816   3.334
11595SOL     OW36791   3.469   6.889   3.125
11595SOL    HW136792   3.506   6.866   3.212
11595SOL    HW236793   3.412   6.964   3.151
11596SOL     OW36794   2.921   6.705   2.595
11596SOL    HW136795   2.844   6.656   2.630
11596SOL    HW236796   2.974   6.633   2.557
11597SOL     OW36797   2.890   5.814   2.848
11597SOL    HW136798   2.882   5.770   2.761
11597SOL    HW236799   2.888   5.738   2.909
11598SOL     OW36800   2.481   7.086   2.350
11598SOL    HW136801   2.529   7.043   2.277
11598SOL    HW236802   2.403   7.120   2.305
11599SOL     OW36803   3.569   5.951   3.241
11599SOL    HW136804   3.631   6.026   3.235
11599SOL    HW236805   3.617   5.883   3.187
11600SOL     OW36806   2.108   6.965   2.134
11600SOL    HW136807   2.012   6.949   2.120
11600SOL    HW236808   2.112   6.988   2.229
11601SOL     OW36809   1.988   6.597   3.565
11601SOL    HW136810   1.916   6.584   3.630
11601SOL    HW236811   2.067   6.565   3.613
11602SOL     OW36812   2.534   5.772   3.353
11602SOL    HW136813   2.620   5.737   3.322
11602SOL    HW236814   2.558   5.810   3.439
11603SOL     OW36815   1.964   5.916   1.865
11603SOL    HW136816   1.870   5.935   1.867
11603SOL    HW236817   1.996   5.990   1.809
11604SOL     OW36818   3.311   6.447   3.257
11604SOL    HW136819   3.265   6.507   3.196
11604SOL    HW236820   3.403   6.477   3.249
11605SOL     OW36821   1.919   5.751   2.159
11605SOL    HW136822   1.897   5.836   2.119
11605SOL    HW236823   1.986   5.775   2.224
11606SOL     OW36824   3.068   6.926   1.973
11606SOL    HW136825   2.983   6.883   1.984
11606SOL    HW236826   3.097   6.937   2.066
11607SOL     OW36827   2.486   6.397   3.295
11607SOL    HW136828   2.541   6.477   3.294
11607SOL    HW236829   2.556   6.329   3.305
11608SOL     OW36830   3.363   7.348   2.827
11608SOL    HW136831   3.401   7.392   2.750
11608SOL    HW236832   3.442   7.333   2.882
11609SOL     OW36833   2.594   6.119   3.557
11609SOL    HW136834   2.639   6.181   3.617
11609SOL    HW236835   2.607   6.032   3.597
11610SOL     OW36836   3.324   6.767   3.488
11610SOL    HW136837   3.312   6.773   3.586
11610SOL    HW236838   3.419   6.790   3.480
11611SOL     OW36839   2.242   7.316   3.424
11611SOL    HW136840   2.155   7.360   3.415
11611SOL    HW236841   2.216   7.231   3.464
11612SOL     OW36842   3.582   6.467   3.094
11612SOL    HW136843   3.540   6.383   3.068
11612SOL    HW236844   3.538   6.532   3.035
11613SOL     OW36845   3.074   5.909   2.338
11613SOL    HW136846   3.140   5.839   2.333
11613SOL    HW236847   3.111   5.965   2.409
11614SOL     OW36848   2.455   6.329   2.519
11614SOL    HW136849   2.498   6.416   2.520
11614SOL    HW236850   2.371   6.348   2.477
11615SOL     OW36851   3.627   5.971   3.500
11615SOL    HW136852   3.596   5.974   3.407
11615SOL    HW236853   3.555   5.920   3.541
11616SOL     OW36854   3.591   6.524   3.357
11616SOL    HW136855   3.612   6.618   3.355
11616SOL    HW236856   3.613   6.496   3.266
11617SOL     OW36857   2.715   6.944   1.897
11617SOL    HW136858   2.685   6.960   1.988
11617SOL    HW236859   2.740   7.031   1.865
11618SOL     OW36860   2.504   7.399   2.784
11618SOL    HW136861   2.509   7.494   2.766
11618SOL    HW236862   2.597   7.374   2.793
11619SOL     OW36863   2.736   6.536   2.713
11619SOL    HW136864   2.789   6.462   2.748
11619SOL    HW236865   2.721   6.591   2.792
11620SOL     OW36866   2.977   6.602   1.976
11620SOL    HW136867   2.940   6.648   1.898
11620SOL    HW236868   3.034   6.536   1.933
11621SOL     OW36869   3.733   7.147   2.691
11621SOL    HW136870   3.639   7.143   2.672
11621SOL    HW236871   3.744   7.082   2.761
11622SOL     OW36872   2.102   6.903   3.729
11622SOL    HW136873   2.025   6.845   3.717
11622SOL    HW236874   2.096   6.922   3.824
11623SOL     OW36875   1.950   6.844   2.523
11623SOL    HW136876   1.965   6.788   2.601
11623SOL    HW236877   2.015   6.809   2.460
11624SOL     OW36878   2.538   6.983   3.477
11624SOL    HW136879   2.462   6.932   3.513
11624SOL    HW236880   2.527   7.069   3.523
11625SOL     OW36881   3.686   5.756   3.097
11625SOL    HW136882   3.689   5.660   3.109
11625SOL    HW236883   3.694   5.763   3.000
11626SOL     OW36884   2.278   6.038   2.388
11626SOL    HW136885   2.337   5.971   2.354
11626SOL    HW236886   2.242   5.998   2.469
11627SOL     OW36887   3.595   7.076   2.950
11627SOL    HW136888   3.507   7.049   2.920
11627SOL    HW236889   3.610   7.013   3.022
11628SOL     OW36890   2.187   6.118   3.144
11628SOL    HW136891   2.260   6.077   3.194
11628SOL    HW236892   2.206   6.091   3.052
11629SOL     OW36893   2.695   7.173   2.535
11629SOL    HW136894   2.684   7.229   2.457
11629SOL    HW236895   2.608   7.131   2.543
11630SOL     OW36896   3.295   5.820   2.961
11630SOL    HW136897   3.342   5.753   3.013
11630SOL    HW236898   3.248   5.872   3.030
11631SOL     OW36899   2.878   5.591   3.010
11631SOL    HW136900   2.824   5.515   2.985
11631SOL    HW236901   2.969   5.553   3.006
11632SOL     OW36902   2.652   6.926   2.173
11632SOL    HW136903   2.622   6.834   2.173
11632SOL    HW236904   2.724   6.925   2.238
11633SOL     OW36905   2.463   7.143   3.127
11633SOL    HW136906   2.463   7.229   3.173
11633SOL    HW236907   2.558   7.136   3.106
11634SOL     OW36908   3.176   5.604   2.051
11634SOL    HW136909   3.180   5.546   1.974
11634SOL    HW236910   3.088   5.579   2.087
11635SOL     OW36911   3.175   6.061   2.544
11635SOL    HW136912   3.107   6.131   2.546
11635SOL    HW236913   3.162   6.017   2.630
11636SOL     OW36914   3.465   5.790   2.729
11636SOL    HW136915   3.391   5.801   2.790
11636SOL    HW236916   3.460   5.870   2.674
11637SOL     OW36917   1.893   6.661   2.195
11637SOL    HW136918   1.978   6.666   2.150
11637SOL    HW236919   1.882   6.564   2.204
11638SOL     OW36920   2.739   7.219   2.182
11638SOL    HW136921   2.661   7.207   2.125
11638SOL    HW236922   2.717   7.297   2.235
11639SOL     OW36923   2.095   6.216   3.853
11639SOL    HW136924   2.003   6.207   3.880
11639SOL    HW236925   2.094   6.199   3.757
11640SOL     OW36926   2.077   5.882   4.723
11640SOL    HW136927   2.103   5.856   4.813
11640SOL    HW236928   1.993   5.833   4.712
11641SOL     OW36929   1.861   5.992   4.346
11641SOL    HW136930   1.780   6.013   4.396
11641SOL    HW236931   1.838   5.906   4.310
11642SOL     OW36932   2.433   6.907   4.873
11642SOL    HW136933   2.341   6.910   4.843
11642SOL    HW236934   2.442   6.990   4.923
11643SOL     OW36935   3.406   7.114   4.423
11643SOL    HW136936   3.369   7.083   4.508
11643SOL    HW236937   3.329   7.121   4.364
11644SOL     OW36938   2.991   6.275   4.443
11644SOL    HW136939   3.023   6.363   4.416
11644SOL    HW236940   2.957   6.293   4.533
11645SOL     OW36941   3.634   6.200   3.961
11645SOL    HW136942   3.614   6.196   3.865
11645SOL    HW236943   3.582   6.126   3.996
11646SOL     OW36944   2.592   6.739   4.742
11646SOL    HW136945   2.529   6.790   4.798
11646SOL    HW236946   2.636   6.812   4.696
11647SOL     OW36947   2.736   6.366   5.542
11647SOL    HW136948   2.738   6.429   5.615
11647SOL    HW236949   2.764   6.423   5.467
11648SOL     OW36950   2.549   6.616   4.384
11648SOL    HW136951   2.610   6.592   4.456
11648SOL    HW236952   2.479   6.665   4.430
11649SOL     OW36953   2.179   7.013   4.786
11649SOL    HW136954   2.106   6.974   4.736
11649SOL    HW236955   2.225   7.070   4.721
11650SOL     OW36956   2.290   5.979   5.235
11650SOL    HW136957   2.361   5.914   5.236
11650SOL    HW236958   2.210   5.925   5.222
11651SOL     OW36959   3.481   6.035   4.462
11651SOL    HW136960   3.411   6.068   4.404
11651SOL    HW236961   3.458   6.080   4.546
11652SOL     OW36962   2.089   7.307   4.189
11652SOL    HW136963   2.115   7.384   4.245
11652SOL    HW236964   2.156   7.311   4.119
11653SOL     OW36965   2.119   7.026   4.248
11653SOL    HW136966   2.109   7.122   4.254
11653SOL    HW236967   2.053   6.994   4.312
11654SOL     OW36968   2.130   6.669   4.619
11654SOL    HW136969   2.133   6.599   4.686
11654SOL    HW236970   2.075   6.736   4.664
11655SOL     OW36971   2.446   7.390   5.119
11655SOL    HW136972   2.388   7.357   5.190
11655SOL    HW236973   2.501   7.456   5.165
11656SOL     OW36974   2.434   6.577   3.847
11656SOL    HW136975   2.484   6.625   3.778
11656SOL    HW236976   2.476   6.611   3.928
11657SOL     OW36977   3.468   5.696   5.206
11657SOL    HW136978   3.482   5.783   5.164
11657SOL    HW236979   3.464   5.723   5.300
11658SOL     OW36980   1.977   6.241   4.288
11658SOL    HW136981   1.943   6.150   4.300
11658SOL    HW236982   1.969   6.278   4.378
11659SOL     OW36983   3.715   7.328   4.064
11659SOL    HW136984   3.782   7.306   4.133
11659SOL    HW236985   3.734   7.422   4.049
11660SOL     OW36986   1.914   7.178   3.835
11660SOL    HW136987   1.901   7.084   3.858
11660SOL    HW236988   1.878   7.223   3.914
11661SOL     OW36989   3.531   6.509   4.358
11661SOL    HW136990   3.621   6.475   4.347
11661SOL    HW236991   3.515   6.555   4.274
11662SOL     OW36992   3.506   6.718   4.164
11662SOL    HW136993   3.598   6.710   4.132
11662SOL    HW236994   3.516   6.776   4.242
11663SOL     OW36995   1.991   6.339   5.309
11663SOL    HW136996   2.087   6.351   5.313
11663SOL    HW236997   1.961   6.423   5.348
11664SOL     OW36998   2.463   6.992   4.497
11664SOL    HW136999   2.422   6.904   4.514
11664SOL    HW237000   2.459   6.993   4.400
11665SOL     OW37001   2.692   5.585   4.231
11665SOL    HW137002   2.725   5.677   4.223
11665SOL    HW237003   2.596   5.599   4.237
11666SOL     OW37004   2.054   6.562   4.986
11666SOL    HW137005   2.145   6.527   4.981
11666SOL    HW237006   2.003   6.495   4.938
11667SOL     OW37007   3.405   6.554   3.910
11667SOL    HW137008   3.324   6.510   3.941
11667SOL    HW237009   3.439   6.592   3.993
11668SOL     OW37010   2.197   5.817   5.494
11668SOL    HW137011   2.247   5.895   5.521
11668SOL    HW237012   2.108   5.839   5.527
11669SOL     OW37013   3.304   7.012   4.667
11669SOL    HW137014   3.319   7.006   4.762
11669SOL    HW237015   3.291   6.918   4.642
11670SOL     OW37016   3.519   7.327   4.308
11670SOL    HW137017   3.507   7.281   4.225
11670SOL    HW237018   3.496   7.258   4.372
11671SOL     OW37019   2.457   6.296   3.989
11671SOL    HW137020   2.452   6.385   3.952
11671SOL    HW237021   2.384   6.297   4.054
11672SOL     OW37022   3.132   5.925   4.638
11672SOL    HW137023   3.044   5.894   4.666
11672SOL    HW237024   3.191   5.887   4.707
11673SOL     OW37025   3.438   7.238   4.022
11673SOL    HW137026   3.531   7.266   4.020
11673SOL    HW237027   3.422   7.219   3.928
11674SOL     OW37028   2.680   6.202   5.177
11674SOL    HW137029   2.654   6.173   5.268
11674SOL    HW237030   2.627   6.143   5.121
11675SOL     OW37031   3.252   6.054   5.399
11675SOL    HW137032   3.262   6.110   5.479
11675SOL    HW237033   3.326   5.992   5.412
11676SOL     OW37034   2.828   6.457   5.291
11676SOL    HW137035   2.871   6.378   5.254
11676SOL    HW237036   2.797   6.502   5.211
11677SOL     OW37037   2.847   5.997   4.966
11677SOL    HW137038   2.760   6.017   5.002
11677SOL    HW237039   2.827   5.953   4.883
11678SOL     OW37040   2.905   6.267   4.132
11678SOL    HW137041   2.919   6.289   4.226
11678SOL    HW237042   2.819   6.221   4.135
11679SOL     OW37043   1.955   6.394   4.523
11679SOL    HW137044   2.034   6.396   4.580
11679SOL    HW237045   1.911   6.476   4.547
11680SOL     OW37046   1.971   7.397   5.286
11680SOL    HW137047   1.982   7.388   5.383
11680SOL    HW237048   1.878   7.421   5.277
11681SOL     OW37049   2.739   5.956   3.933
11681SOL    HW137050   2.783   6.014   3.869
11681SOL    HW237051   2.759   5.870   3.897
11682SOL     OW37052   3.526   6.139   5.532
11682SOL    HW137053   3.521   6.223   5.481
11682SOL    HW237054   3.621   6.133   5.557
11683SOL     OW37055   3.220   6.736   4.279
11683SOL    HW137056   3.299   6.732   4.224
11683SOL    HW237057   3.163   6.797   4.228
11684SOL     OW37058   2.411   5.792   4.617
11684SOL    HW137059   2.418   5.800   4.714
11684SOL    HW237060   2.404   5.885   4.589
11685SOL     OW37061   2.848   7.030   4.194
11685SOL    HW137062   2.804   7.096   4.136
11685SOL    HW237063   2.865   7.081   4.274
11686SOL     OW37064   2.208   7.404   4.580
11686SOL    HW137065   2.256   7.319   4.589
11686SOL    HW237066   2.276   7.469   4.606
11687SOL     OW37067   3.673   6.648   4.564
11687SOL    HW137068   3.609   6.625   4.495
11687SOL    HW237069   3.624   6.628   4.645
11688SOL     OW37070   2.166   6.542   3.978
11688SOL    HW137071   2.241   6.563   3.921
11688SOL    HW237072   2.137   6.456   3.944
11689SOL     OW37073   3.337   6.341   4.438
11689SOL    HW137074   3.341   6.315   4.531
11689SOL    HW237075   3.415   6.398   4.428
11690SOL     OW37076   2.332   6.800   5.464
11690SOL    HW137077   2.289   6.800   5.376
11690SOL    HW237078   2.261   6.838   5.518
11691SOL     OW37079   2.956   7.359   3.970
11691SOL    HW137080   2.890   7.307   4.019
11691SOL    HW237081   2.972   7.303   3.892
11692SOL     OW37082   2.034   5.875   5.215
11692SOL    HW137083   1.966   5.938   5.241
11692SOL    HW237084   2.012   5.797   5.268
11693SOL     OW37085   3.489   6.937   3.816
11693SOL    HW137086   3.445   7.022   3.797
11693SOL    HW237087   3.425   6.872   3.781
11694SOL     OW37088   2.315   7.333   4.036
11694SOL    HW137089   2.367   7.376   4.107
11694SOL    HW237090   2.383   7.289   3.983
11695SOL     OW37091   3.263   5.712   4.165
11695SOL    HW137092   3.255   5.666   4.080
11695SOL    HW237093   3.359   5.717   4.177
11696SOL     OW37094   2.117   7.380   4.956
11696SOL    HW137095   2.185   7.321   4.992
11696SOL    HW237096   2.110   7.351   4.864
11697SOL     OW37097   2.817   7.278   4.612
11697SOL    HW137098   2.905   7.239   4.611
11697SOL    HW237099   2.772   7.227   4.541
11698SOL     OW37100   2.255   6.275   4.192
11698SOL    HW137101   2.278   6.183   4.216
11698SOL    HW237102   2.159   6.276   4.210
11699SOL     OW37103   3.386   5.806   5.452
11699SOL    HW137104   3.472   5.816   5.499
11699SOL    HW237105   3.325   5.812   5.528
11700SOL     OW37106   2.494   5.716   3.820
11700SOL    HW137107   2.565   5.657   3.848
11700SOL    HW237108   2.446   5.661   3.754
11701SOL     OW37109   2.625   5.832   5.456
11701SOL    HW137110   2.711   5.787   5.473
11701SOL    HW237111   2.584   5.833   5.544
11702SOL     OW37112   2.734   7.142   4.900
11702SOL    HW137113   2.738   7.120   4.805
11702SOL    HW237114   2.739   7.055   4.939
11703SOL     OW37115   3.205   6.169   5.160
11703SOL    HW137116   3.239   6.141   5.247
11703SOL    HW237117   3.246   6.258   5.149
11704SOL     OW37118   2.688   6.994   4.667
11704SOL    HW137119   2.774   6.985   4.621
11704SOL    HW237120   2.624   6.996   4.594
11705SOL     OW37121   2.793   6.093   4.632
11705SOL    HW137122   2.771   6.081   4.537
11705SOL    HW237123   2.837   6.009   4.652
11706SOL     OW37124   2.419   5.637   4.222
11706SOL    HW137125   2.339   5.646   4.277
11706SOL    HW237126   2.409   5.714   4.161
11707SOL     OW37127   3.304   6.756   3.745
11707SOL    HW137128   3.335   6.681   3.800
11707SOL    HW237129   3.218   6.778   3.783
11708SOL     OW37130   2.143   5.633   3.914
11708SOL    HW137131   2.204   5.704   3.891
11708SOL    HW237132   2.204   5.569   3.956
11709SOL     OW37133   2.795   5.837   4.210
11709SOL    HW137134   2.772   5.886   4.130
11709SOL    HW237135   2.890   5.856   4.216
11710SOL     OW37136   2.962   6.257   5.171
11710SOL    HW137137   2.908   6.181   5.195
11710SOL    HW237138   3.054   6.223   5.173
11711SOL     OW37139   3.082   7.156   4.526
11711SOL    HW137140   3.103   7.224   4.460
11711SOL    HW237141   3.163   7.151   4.579
11712SOL     OW37142   2.332   6.753   4.465
11712SOL    HW137143   2.260   6.718   4.520
11712SOL    HW237144   2.298   6.732   4.375
11713SOL     OW37145   3.130   7.396   4.315
11713SOL    HW137146   3.183   7.457   4.260
11713SOL    HW237147   3.083   7.456   4.374
11714SOL     OW37148   2.921   6.112   3.754
11714SOL    HW137149   2.877   6.197   3.735
11714SOL    HW237150   2.990   6.136   3.818
11715SOL     OW37151   1.918   6.151   5.127
11715SOL    HW137152   2.012   6.136   5.106
11715SOL    HW237153   1.923   6.230   5.184
11716SOL     OW37154   2.430   5.810   4.884
11716SOL    HW137155   2.475   5.742   4.935
11716SOL    HW237156   2.339   5.804   4.918
11717SOL     OW37157   2.737   6.046   4.380
11717SOL    HW137158   2.695   6.098   4.309
11717SOL    HW237159   2.758   5.962   4.336
11718SOL     OW37160   2.884   5.660   4.497
11718SOL    HW137161   2.844   5.643   4.411
11718SOL    HW237162   2.861   5.579   4.546
11719SOL     OW37163   3.288   6.751   4.606
11719SOL    HW137164   3.249   6.666   4.633
11719SOL    HW237165   3.290   6.742   4.510
11720SOL     OW37166   3.362   6.149   4.684
11720SOL    HW137167   3.291   6.091   4.714
11720SOL    HW237168   3.414   6.163   4.766
11721SOL     OW37169   3.704   6.410   4.114
11721SOL    HW137170   3.758   6.359   4.177
11721SOL    HW237171   3.686   6.342   4.046
11722SOL     OW37172   2.355   7.007   3.855
11722SOL    HW137173   2.273   6.993   3.904
11722SOL    HW237174   2.342   6.955   3.775
11723SOL     OW37175   3.538   6.872   4.388
11723SOL    HW137176   3.634   6.881   4.395
11723SOL    HW237177   3.505   6.962   4.403
11724SOL     OW37178   3.262   6.176   3.784
11724SOL    HW137179   3.219   6.148   3.868
11724SOL    HW237180   3.355   6.156   3.803
11725SOL     OW37181   2.379   5.825   4.037
11725SOL    HW137182   2.427   5.795   3.957
11725SOL    HW237183   2.343   5.911   4.006
11726SOL     OW37184   2.990   6.828   4.823
11726SOL    HW137185   2.905   6.800   4.857
11726SOL    HW237186   2.967   6.874   4.740
11727SOL     OW37187   3.493   6.687   4.810
11727SOL    HW137188   3.516   6.749   4.883
11727SOL    HW237189   3.430   6.739   4.759
11728SOL     OW37190   2.781   5.693   5.115
11728SOL    HW137191   2.814   5.667   5.027
11728SOL    HW237192   2.860   5.737   5.153
11729SOL     OW37193   2.739   6.656   5.434
11729SOL    HW137194   2.803   6.728   5.439
11729SOL    HW237195   2.795   6.585   5.398
11730SOL     OW37196   2.580   6.649   4.081
11730SOL    HW137197   2.570   6.626   4.175
11730SOL    HW237198   2.654   6.591   4.052
11731SOL     OW37199   2.292   6.398   4.999
11731SOL    HW137200   2.368   6.398   5.061
11731SOL    HW237201   2.251   6.312   5.016
11732SOL     OW37202   3.154   5.975   4.992
11732SOL    HW137203   3.180   6.046   5.055
11732SOL    HW237204   3.063   6.000   4.968
11733SOL     OW37205   1.945   7.156   5.068
11733SOL    HW137206   1.951   7.249   5.043
11733SOL    HW237207   2.039   7.129   5.066
11734SOL     OW37208   2.225   6.699   4.223
11734SOL    HW137209   2.255   6.759   4.153
11734SOL    HW237210   2.207   6.618   4.174
11735SOL     OW37211   2.401   6.129   4.566
11735SOL    HW137212   2.425   6.191   4.493
11735SOL    HW237213   2.473   6.144   4.629
11736SOL     OW37214   3.085   6.922   4.115
11736SOL    HW137215   3.133   6.996   4.157
11736SOL    HW237216   2.993   6.944   4.138
11737SOL     OW37217   3.438   6.210   4.191
11737SOL    HW137218   3.389   6.254   4.262
11737SOL    HW237219   3.479   6.284   4.145
11738SOL     OW37220   2.205   7.072   5.039
11738SOL    HW137221   2.196   7.051   4.943
11738SOL    HW237222   2.299   7.098   5.042
11739SOL     OW37223   2.297   6.311   5.346
11739SOL    HW137224   2.361   6.361   5.291
11739SOL    HW237225   2.332   6.221   5.341
11740SOL     OW37226   3.480   6.363   5.384
11740SOL    HW137227   3.394   6.410   5.380
11740SOL    HW237228   3.537   6.420   5.329
11741SOL     OW37229   2.865   5.702   5.479
11741SOL    HW137230   2.924   5.780   5.479
11741SOL    HW237231   2.915   5.643   5.421
11742SOL     OW37232   2.364   5.593   5.484
11742SOL    HW137233   2.318   5.541   5.415
11742SOL    HW237234   2.307   5.672   5.487
11743SOL     OW37235   2.420   6.481   4.760
11743SOL    HW137236   2.468   6.565   4.762
11743SOL    HW237237   2.386   6.473   4.850
11744SOL     OW37238   3.216   6.477   4.700
11744SOL    HW137239   3.128   6.437   4.705
11744SOL    HW237240   3.265   6.424   4.764
11745SOL     OW37241   3.085   6.105   3.997
11745SOL    HW137242   3.089   6.030   4.059
11745SOL    HW237243   3.023   6.163   4.044
11746SOL     OW37244   2.167   5.783   4.972
11746SOL    HW137245   2.119   5.815   5.050
11746SOL    HW237246   2.135   5.691   4.965
11747SOL     OW37247   1.870   6.893   5.003
11747SOL    HW137248   1.911   6.829   5.066
11747SOL    HW237249   1.911   6.977   5.031
11748SOL     OW37250   2.583   6.228   4.778
11748SOL    HW137251   2.662   6.200   4.728
11748SOL    HW237252   2.558   6.314   4.742
11749SOL     OW37253   3.620   6.570   5.553
11749SOL    HW137254   3.551   6.552   5.489
11749SOL    HW237255   3.571   6.562   5.637
11750SOL     OW37256   2.168   5.651   4.333
11750SOL    HW137257   2.139   5.741   4.358
11750SOL    HW237258   2.174   5.608   4.421
11751SOL     OW37259   3.462   5.968   4.075
11751SOL    HW137260   3.496   5.907   4.142
11751SOL    HW237261   3.451   6.050   4.127
11752SOL     OW37262   2.907   6.334   4.695
11752SOL    HW137263   2.894   6.348   4.791
11752SOL    HW237264   2.875   6.242   4.683
11753SOL     OW37265   2.214   6.498   5.524
11753SOL    HW137266   2.293   6.530   5.570
11753SOL    HW237267   2.246   6.420   5.476
11754SOL     OW37268   3.361   5.842   3.851
11754SOL    HW137269   3.287   5.792   3.888
11754SOL    HW237270   3.401   5.884   3.930
11755SOL     OW37271   3.135   6.416   3.746
11755SOL    HW137272   3.183   6.333   3.761
11755SOL    HW237273   3.170   6.443   3.658
11756SOL     OW37274   2.926   6.944   4.568
11756SOL    HW137275   2.939   6.871   4.504
11756SOL    HW237276   2.993   7.010   4.543
11757SOL     OW37277   2.150   6.399   4.726
11757SOL    HW137278   2.245   6.417   4.718
11757SOL    HW237279   2.151   6.305   4.750
11758SOL     OW37280   2.196   6.126   4.734
11758SOL    HW137281   2.161   6.036   4.720
11758SOL    HW237282   2.260   6.133   4.659
11759SOL     OW37283   3.016   5.932   5.438
11759SOL    HW137284   2.971   6.003   5.487
11759SOL    HW237285   3.108   5.968   5.433
11760SOL     OW37286   3.030   5.775   5.213
11760SOL    HW137287   3.039   5.838   5.287
11760SOL    HW237288   3.083   5.819   5.145
11761SOL     OW37289   1.859   6.907   3.914
11761SOL    HW137290   1.765   6.915   3.886
11761SOL    HW237291   1.862   6.817   3.952
11762SOL     OW37292   1.963   7.375   4.670
11762SOL    HW137293   1.937   7.300   4.613
11762SOL    HW237294   2.053   7.395   4.636
11763SOL     OW37295   2.344   7.185   4.648
11763SOL    HW137296   2.414   7.242   4.684
11763SOL    HW237297   2.395   7.117   4.600
11764SOL     OW37298   2.846   6.359   4.955
11764SOL    HW137299   2.903   6.330   5.029
11764SOL    HW237300   2.760   6.328   4.988
11765SOL     OW37301   1.888   6.109   4.835
11765SOL    HW137302   1.965   6.091   4.780
11765SOL    HW237303   1.928   6.135   4.919
11766SOL     OW37304   2.074   6.099   5.435
11766SOL    HW137305   2.134   6.063   5.367
11766SOL    HW237306   2.029   6.171   5.388
11767SOL     OW37307   3.251   6.496   5.393
11767SOL    HW137308   3.294   6.584   5.396
11767SOL    HW237309   3.185   6.511   5.323
11768SOL     OW37310   2.663   6.149   4.114
11768SOL    HW137311   2.678   6.085   4.042
11768SOL    HW237312   2.591   6.204   4.078
11769SOL     OW37313   3.497   6.197   4.906
11769SOL    HW137314   3.476   6.153   4.989
11769SOL    HW237315   3.590   6.168   4.892
11770SOL     OW37316   2.094   7.128   5.451
11770SOL    HW137317   2.107   7.192   5.521
11770SOL    HW237318   2.106   7.043   5.497
11771SOL     OW37319   2.548   6.066   4.992
11771SOL    HW137320   2.498   5.992   4.956
11771SOL    HW237321   2.549   6.129   4.917
11772SOL     OW37322   2.767   7.332   5.143
11772SOL    HW137323   2.776   7.263   5.075
11772SOL    HW237324   2.856   7.346   5.174
11773SOL     OW37325   2.301   6.055   3.925
11773SOL    HW137326   2.368   6.125   3.928
11773SOL    HW237327   2.219   6.108   3.914
11774SOL     OW37328   1.965   6.716   5.182
11774SOL    HW137329   1.987   6.666   5.264
11774SOL    HW237330   1.997   6.653   5.113
11775SOL     OW37331   3.182   6.626   4.937
11775SOL    HW137332   3.215   6.592   4.853
11775SOL    HW237333   3.136   6.708   4.912
11776SOL     OW37334   3.169   6.444   4.012
11776SOL    HW137335   3.090   6.410   4.057
11776SOL    HW237336   3.145   6.441   3.918
11777SOL     OW37337   3.100   7.313   4.842
11777SOL    HW137338   3.181   7.348   4.800
11777SOL    HW237339   3.137   7.252   4.906
11778SOL     OW37340   1.958   6.835   4.746
11778SOL    HW137341   1.922   6.852   4.835
11778SOL    HW237342   1.889   6.781   4.705
11779SOL     OW37343   3.557   5.730   4.233
11779SOL    HW137344   3.629   5.713   4.171
11779SOL    HW237345   3.550   5.647   4.283
11780SOL     OW37346   3.221   7.164   4.205
11780SOL    HW137347   3.281   7.186   4.132
11780SOL    HW237348   3.183   7.252   4.229
11781SOL     OW37349   2.000   7.381   5.558
11781SOL    HW137350   1.956   7.313   5.613
11781SOL    HW237351   2.052   7.430   5.624
11782SOL     OW37352   3.109   6.511   4.383
11782SOL    HW137353   3.189   6.461   4.406
11782SOL    HW237354   3.148   6.589   4.340
11783SOL     OW37355   2.532   7.206   3.881
11783SOL    HW137356   2.546   7.214   3.784
11783SOL    HW237357   2.475   7.126   3.884
11784SOL     OW37358   3.710   5.756   4.699
11784SOL    HW137359   3.733   5.666   4.671
11784SOL    HW237360   3.619   5.769   4.665
11785SOL     OW37361   2.108   5.900   4.426
11785SOL    HW137362   2.026   5.949   4.407
11785SOL    HW237363   2.118   5.914   4.521
11786SOL     OW37364   3.043   7.216   3.756
11786SOL    HW137365   3.053   7.120   3.767
11786SOL    HW237366   2.990   7.223   3.675
11787SOL     OW37367   2.679   6.602   5.105
11787SOL    HW137368   2.726   6.623   5.024
11787SOL    HW237369   2.697   6.677   5.163
11788SOL     OW37370   2.773   6.499   3.993
11788SOL    HW137371   2.847   6.544   3.948
11788SOL    HW237372   2.816   6.424   4.037
11789SOL     OW37373   3.383   7.179   3.757
11789SOL    HW137374   3.293   7.212   3.751
11789SOL    HW237375   3.413   7.182   3.664
11790SOL     OW37376   2.203   6.857   5.227
11790SOL    HW137377   2.213   6.929   5.163
11790SOL    HW237378   2.118   6.817   5.203
11791SOL     OW37379   2.901   6.699   4.425
11791SOL    HW137380   2.828   6.646   4.461
11791SOL    HW237381   2.971   6.632   4.413
11792SOL     OW37382   2.896   5.818   4.715
11792SOL    HW137383   2.884   5.775   4.628
11792SOL    HW237384   2.901   5.741   4.774
11793SOL     OW37385   2.482   7.058   4.230
11793SOL    HW137386   2.523   7.019   4.151
11793SOL    HW237387   2.402   7.098   4.194
11794SOL     OW37388   3.539   5.956   5.094
11794SOL    HW137389   3.608   6.018   5.122
11794SOL    HW237390   3.591   5.893   5.040
11795SOL     OW37391   2.103   6.969   3.992
11795SOL    HW137392   2.007   6.952   3.987
11795SOL    HW237393   2.114   6.991   4.087
11796SOL     OW37394   1.986   6.594   5.418
11796SOL    HW137395   1.914   6.582   5.483
11796SOL    HW237396   2.067   6.567   5.468
11797SOL     OW37397   2.521   5.757   5.209
11797SOL    HW137398   2.612   5.742   5.176
11797SOL    HW237399   2.540   5.793   5.298
11798SOL     OW37400   1.957   5.925   3.741
11798SOL    HW137401   1.862   5.930   3.727
11798SOL    HW237402   1.989   6.001   3.689
11799SOL     OW37403   3.286   6.435   5.098
11799SOL    HW137404   3.244   6.513   5.057
11799SOL    HW237405   3.380   6.462   5.099
11800SOL     OW37406   1.908   5.748   4.020
11800SOL    HW137407   1.908   5.836   3.979
11800SOL    HW237408   1.991   5.711   3.985
11801SOL     OW37409   3.064   6.943   3.830
11801SOL    HW137410   2.985   6.889   3.846
11801SOL    HW237411   3.099   6.951   3.920
11802SOL     OW37412   2.495   6.392   5.164
11802SOL    HW137413   2.551   6.472   5.167
11802SOL    HW237414   2.563   6.322   5.166
11803SOL     OW37415   3.379   7.343   4.690
11803SOL    HW137416   3.417   7.406   4.628
11803SOL    HW237417   3.423   7.364   4.773
11804SOL     OW37418   2.597   6.118   5.408
11804SOL    HW137419   2.620   6.182   5.477
11804SOL    HW237420   2.623   6.032   5.443
11805SOL     OW37421   3.373   6.729   5.387
11805SOL    HW137422   3.301   6.787   5.413
11805SOL    HW237423   3.426   6.783   5.323
11806SOL     OW37424   2.244   7.309   5.289
11806SOL    HW137425   2.151   7.337   5.281
11806SOL    HW237426   2.235   7.217   5.317
11807SOL     OW37427   3.538   6.457   4.959
11807SOL    HW137428   3.526   6.370   4.916
11807SOL    HW237429   3.522   6.522   4.889
11808SOL     OW37430   3.061   5.910   4.197
11808SOL    HW137431   3.130   5.842   4.187
11808SOL    HW237432   3.097   5.963   4.273
11809SOL     OW37433   2.464   6.328   4.385
11809SOL    HW137434   2.493   6.419   4.371
11809SOL    HW237435   2.393   6.319   4.319
11810SOL     OW37436   3.643   5.900   5.346
11810SOL    HW137437   3.573   5.948   5.302
11810SOL    HW237438   3.632   5.926   5.438
11811SOL     OW37439   3.597   6.550   5.223
11811SOL    HW137440   3.632   6.640   5.229
11811SOL    HW237441   3.602   6.532   5.128
11812SOL     OW37442   2.718   6.941   3.751
11812SOL    HW137443   2.690   6.954   3.843
11812SOL    HW237444   2.742   7.030   3.721
11813SOL     OW37445   2.538   7.382   4.676
11813SOL    HW137446   2.533   7.472   4.640
11813SOL    HW237447   2.630   7.357   4.659
11814SOL     OW37448   2.740   6.525   4.571
11814SOL    HW137449   2.795   6.455   4.610
11814SOL    HW237450   2.721   6.582   4.647
11815SOL     OW37451   2.961   6.601   3.823
11815SOL    HW137452   2.927   6.645   3.743
11815SOL    HW237453   3.016   6.531   3.782
11816SOL     OW37454   3.710   7.131   4.551
11816SOL    HW137455   3.614   7.132   4.549
11816SOL    HW237456   3.731   7.058   4.611
11817SOL     OW37457   2.102   6.902   5.589
11817SOL    HW137458   2.028   6.841   5.578
11817SOL    HW237459   2.096   6.924   5.684
11818SOL     OW37460   1.950   6.840   4.372
11818SOL    HW137461   1.958   6.786   4.452
11818SOL    HW237462   2.022   6.804   4.317
11819SOL     OW37463   2.453   7.022   5.351
11819SOL    HW137464   2.434   6.932   5.380
11819SOL    HW237465   2.550   7.022   5.343
11820SOL     OW37466   3.683   5.769   4.958
11820SOL    HW137467   3.685   5.673   4.967
11820SOL    HW237468   3.697   5.781   4.862
11821SOL     OW37469   2.298   6.019   4.259
11821SOL    HW137470   2.343   5.952   4.206
11821SOL    HW237471   2.253   5.968   4.328
11822SOL     OW37472   2.178   6.126   5.007
11822SOL    HW137473   2.249   6.079   5.055
11822SOL    HW237474   2.201   6.111   4.914
11823SOL     OW37475   2.685   7.177   4.402
11823SOL    HW137476   2.684   7.197   4.308
11823SOL    HW237477   2.602   7.128   4.413
11824SOL     OW37478   3.290   5.822   4.820
11824SOL    HW137479   3.321   5.742   4.864
11824SOL    HW237480   3.252   5.873   4.895
11825SOL     OW37481   2.876   5.585   4.871
11825SOL    HW137482   2.823   5.516   4.827
11825SOL    HW237483   2.966   5.544   4.868
11826SOL     OW37484   2.648   6.922   4.031
11826SOL    HW137485   2.624   6.828   4.042
11826SOL    HW237486   2.724   6.929   4.091
11827SOL     OW37487   2.456   7.157   4.983
11827SOL    HW137488   2.457   7.238   5.039
11827SOL    HW237489   2.546   7.160   4.949
11828SOL     OW37490   3.178   5.618   3.913
11828SOL    HW137491   3.191   5.567   3.832
11828SOL    HW237492   3.088   5.586   3.941
11829SOL     OW37493   3.144   6.057   4.407
11829SOL    HW137494   3.092   6.140   4.416
11829SOL    HW237495   3.136   6.018   4.497
11830SOL     OW37496   3.464   5.788   4.598
11830SOL    HW137497   3.391   5.807   4.660
11830SOL    HW237498   3.466   5.866   4.540
11831SOL     OW37499   1.913   6.663   4.031
11831SOL    HW137500   2.008   6.653   4.010
11831SOL    HW237501   1.889   6.571   4.051
11832SOL     OW37502   2.735   7.235   4.061
11832SOL    HW137503   2.662   7.225   3.998
11832SOL    HW237504   2.716   7.319   4.107
11833SOL     OW37505   2.099   6.217   5.704
11833SOL    HW137506   2.008   6.212   5.739
11833SOL    HW237507   2.090   6.189   5.611
11834SOL     OW37508   2.076   5.879   6.585
11834SOL    HW137509   2.099   5.852   6.676
11834SOL    HW237510   1.993   5.828   6.571
11835SOL     OW37511   1.860   5.992   6.206
11835SOL    HW137512   1.778   6.014   6.255
11835SOL    HW237513   1.839   5.903   6.176
11836SOL     OW37514   2.426   6.892   6.772
11836SOL    HW137515   2.341   6.900   6.727
11836SOL    HW237516   2.443   6.984   6.800
11837SOL     OW37517   3.441   7.090   6.293
11837SOL    HW137518   3.401   7.109   6.380
11837SOL    HW237519   3.373   7.119   6.231
11838SOL     OW37520   2.976   6.306   6.269
11838SOL    HW137521   3.043   6.377   6.273
11838SOL    HW237522   2.940   6.310   6.359
11839SOL     OW37523   3.615   6.206   5.836
11839SOL    HW137524   3.643   6.151   5.761
11839SOL    HW237525   3.557   6.148   5.887
11840SOL     OW37526   2.579   6.741   6.613
11840SOL    HW137527   2.519   6.790   6.673
11840SOL    HW237528   2.637   6.813   6.583
11841SOL     OW37529   2.746   6.348   7.388
11841SOL    HW137530   2.724   6.414   7.455
11841SOL    HW237531   2.766   6.402   7.309
11842SOL     OW37532   2.553   6.642   6.237
11842SOL    HW137533   2.623   6.614   6.299
11842SOL    HW237534   2.487   6.680   6.297
11843SOL     OW37535   2.554   6.743   7.381
11843SOL    HW137536   2.597   6.827   7.407
11843SOL    HW237537   2.464   6.773   7.356
11844SOL     OW37538   2.192   7.016   6.643
11844SOL    HW137539   2.122   6.970   6.595
11844SOL    HW237540   2.238   7.068   6.575
11845SOL     OW37541   2.305   6.003   7.063
11845SOL    HW137542   2.385   5.958   7.092
11845SOL    HW237543   2.235   5.944   7.096
11846SOL     OW37544   2.089   7.310   6.054
11846SOL    HW137545   2.112   7.385   6.112
11846SOL    HW237546   2.162   7.313   5.989
11847SOL     OW37547   2.983   6.938   7.271
11847SOL    HW137548   3.035   6.929   7.351
11847SOL    HW237549   2.938   6.852   7.266
11848SOL     OW37550   2.110   7.021   6.110
11848SOL    HW137551   2.114   7.117   6.120
11848SOL    HW237552   2.055   6.994   6.185
11849SOL     OW37553   2.121   6.659   6.484
11849SOL    HW137554   2.132   6.581   6.540
11849SOL    HW237555   2.073   6.720   6.544
11850SOL     OW37556   2.462   7.379   6.980
11850SOL    HW137557   2.401   7.356   7.051
11850SOL    HW237558   2.499   7.464   7.011
11851SOL     OW37559   2.434   6.586   5.708
11851SOL    HW137560   2.473   6.650   5.647
11851SOL    HW237561   2.478   6.609   5.792
11852SOL     OW37562   3.467   5.695   7.065
11852SOL    HW137563   3.481   5.772   7.006
11852SOL    HW237564   3.467   5.738   7.151
11853SOL     OW37565   1.975   6.233   6.147
11853SOL    HW137566   1.945   6.141   6.167
11853SOL    HW237567   1.972   6.275   6.235
11854SOL     OW37568   1.877   7.179   5.704
11854SOL    HW137569   1.882   7.085   5.729
11854SOL    HW237570   1.862   7.223   5.790
11855SOL     OW37571   3.538   6.486   6.164
11855SOL    HW137572   3.593   6.516   6.237
11855SOL    HW237573   3.529   6.564   6.108
11856SOL     OW37574   3.517   6.739   6.027
11856SOL    HW137575   3.608   6.718   5.998
11856SOL    HW237576   3.532   6.785   6.112
11857SOL     OW37577   1.984   6.354   7.154
11857SOL    HW137578   2.081   6.352   7.164
11857SOL    HW237579   1.961   6.429   7.211
11858SOL     OW37580   2.464   6.995   6.349
11858SOL    HW137581   2.422   6.908   6.363
11858SOL    HW237582   2.466   6.999   6.251
11859SOL     OW37583   2.691   5.586   6.083
11859SOL    HW137584   2.720   5.679   6.078
11859SOL    HW237585   2.594   5.595   6.090
11860SOL     OW37586   2.037   6.563   6.839
11860SOL    HW137587   2.128   6.528   6.832
11860SOL    HW237588   1.983   6.492   6.802
11861SOL     OW37589   3.419   6.553   5.776
11861SOL    HW137590   3.336   6.508   5.797
11861SOL    HW237591   3.441   6.596   5.859
11862SOL     OW37592   3.033   7.394   7.198
11862SOL    HW137593   3.062   7.459   7.132
11862SOL    HW237594   3.056   7.309   7.156
11863SOL     OW37595   3.274   7.019   6.509
11863SOL    HW137596   3.298   7.015   6.603
11863SOL    HW237597   3.277   6.923   6.490
11864SOL     OW37598   2.459   6.304   5.856
11864SOL    HW137599   2.464   6.392   5.814
11864SOL    HW237600   2.386   6.314   5.918
11865SOL     OW37601   3.128   5.916   6.501
11865SOL    HW137602   3.046   5.879   6.537
11865SOL    HW237603   3.195   5.893   6.568
11866SOL     OW37604   2.677   6.210   7.042
11866SOL    HW137605   2.653   6.176   7.131
11866SOL    HW237606   2.632   6.146   6.984
11867SOL     OW37607   3.261   6.048   7.262
11867SOL    HW137608   3.284   6.112   7.331
11867SOL    HW237609   3.321   5.973   7.281
11868SOL     OW37610   2.828   6.472   7.166
11868SOL    HW137611   2.875   6.392   7.132
11868SOL    HW237612   2.782   6.503   7.086
11869SOL     OW37613   2.828   5.990   6.822
11869SOL    HW137614   2.736   6.017   6.837
11869SOL    HW237615   2.824   5.949   6.735
11870SOL     OW37616   2.903   6.273   6.007
11870SOL    HW137617   2.933   6.291   6.100
11870SOL    HW237618   2.824   6.220   6.022
11871SOL     OW37619   1.973   6.393   6.373
11871SOL    HW137620   2.049   6.396   6.435
11871SOL    HW237621   1.921   6.470   6.402
11872SOL     OW37622   1.961   7.433   7.154
11872SOL    HW137623   1.978   7.415   7.249
11872SOL    HW237624   1.866   7.421   7.147
11873SOL     OW37625   2.751   5.951   5.790
11873SOL    HW137626   2.792   6.009   5.725
11873SOL    HW237627   2.814   5.878   5.792
11874SOL     OW37628   3.589   6.189   7.414
11874SOL    HW137629   3.562   6.257   7.351
11874SOL    HW237630   3.618   6.117   7.356
11875SOL     OW37631   3.249   6.740   6.137
11875SOL    HW137632   3.343   6.730   6.114
11875SOL    HW237633   3.217   6.792   6.063
11876SOL     OW37634   2.401   5.785   6.487
11876SOL    HW137635   2.412   5.800   6.583
11876SOL    HW237636   2.401   5.875   6.452
11877SOL     OW37637   2.817   7.061   6.102
11877SOL    HW137638   2.885   7.063   6.035
11877SOL    HW237639   2.868   7.062   6.184
11878SOL     OW37640   2.209   7.406   6.444
11878SOL    HW137641   2.261   7.324   6.454
11878SOL    HW237642   2.277   7.474   6.462
11879SOL     OW37643   3.082   7.146   7.098
11879SOL    HW137644   3.061   7.071   7.154
11879SOL    HW237645   3.123   7.101   7.023
11880SOL     OW37646   2.167   6.546   5.828
11880SOL    HW137647   2.253   6.569   5.792
11880SOL    HW237648   2.149   6.461   5.784
11881SOL     OW37649   2.320   6.868   7.311
11881SOL    HW137650   2.283   6.862   7.219
11881SOL    HW237651   2.237   6.873   7.362
11882SOL     OW37652   2.028   5.872   7.085
11882SOL    HW137653   1.954   5.918   7.126
11882SOL    HW237654   2.071   5.832   7.163
11883SOL     OW37655   3.477   6.962   5.704
11883SOL    HW137656   3.449   6.995   5.619
11883SOL    HW237657   3.440   6.873   5.705
11884SOL     OW37658   2.311   7.332   5.909
11884SOL    HW137659   2.371   7.377   5.973
11884SOL    HW237660   2.374   7.293   5.845
11885SOL     OW37661   3.261   5.652   6.029
11885SOL    HW137662   3.270   5.665   5.934
11885SOL    HW237663   3.312   5.726   6.069
11886SOL     OW37664   2.105   7.374   6.817
11886SOL    HW137665   2.170   7.313   6.856
11886SOL    HW237666   2.106   7.348   6.724
11887SOL     OW37667   2.806   7.259   6.505
11887SOL    HW137668   2.899   7.232   6.494
11887SOL    HW237669   2.765   7.220   6.426
11888SOL     OW37670   2.226   6.289   6.048
11888SOL    HW137671   2.252   6.198   6.075
11888SOL    HW237672   2.131   6.285   6.068
11889SOL     OW37673   3.400   5.817   7.314
11889SOL    HW137674   3.400   5.826   7.413
11889SOL    HW237675   3.335   5.747   7.304
11890SOL     OW37676   2.484   5.722   5.689
11890SOL    HW137677   2.565   5.676   5.714
11890SOL    HW237678   2.445   5.663   5.622
11891SOL     OW37679   2.627   5.854   7.319
11891SOL    HW137680   2.707   5.798   7.333
11891SOL    HW237681   2.573   5.832   7.396
11892SOL     OW37682   2.744   7.126   6.788
11892SOL    HW137683   2.747   7.107   6.693
11892SOL    HW237684   2.813   7.067   6.823
11893SOL     OW37685   3.192   6.157   7.006
11893SOL    HW137686   3.242   6.141   7.088
11893SOL    HW237687   3.236   6.232   6.964
11894SOL     OW37688   2.683   6.991   6.530
11894SOL    HW137689   2.770   6.981   6.485
11894SOL    HW237690   2.621   6.995   6.456
11895SOL     OW37691   2.792   6.079   6.513
11895SOL    HW137692   2.762   6.077   6.419
11895SOL    HW237693   2.846   5.998   6.517
11896SOL     OW37694   2.414   5.636   6.090
11896SOL    HW137695   2.338   5.644   6.151
11896SOL    HW237696   2.407   5.720   6.039
11897SOL     OW37697   2.134   5.639   5.783
11897SOL    HW137698   2.194   5.714   5.769
11897SOL    HW237699   2.196   5.572   5.817
11898SOL     OW37700   2.786   5.840   6.077
11898SOL    HW137701   2.777   5.902   6.003
11898SOL    HW237702   2.883   5.844   6.092
11899SOL     OW37703   2.952   6.255   7.067
11899SOL    HW137704   2.881   6.191   7.050
11899SOL    HW237705   3.033   6.205   7.046
11900SOL     OW37706   3.077   7.186   6.378
11900SOL    HW137707   3.124   7.243   6.316
11900SOL    HW237708   3.149   7.157   6.436
11901SOL     OW37709   2.330   6.760   6.347
11901SOL    HW137710   2.260   6.718   6.400
11901SOL    HW237711   2.300   6.738   6.256
11902SOL     OW37712   3.165   7.427   6.152
11902SOL    HW137713   3.236   7.487   6.124
11902SOL    HW237714   3.129   7.473   6.228
11903SOL     OW37715   2.905   6.136   5.588
11903SOL    HW137716   2.864   6.224   5.581
11903SOL    HW237717   2.974   6.150   5.655
11904SOL     OW37718   1.905   6.154   6.984
11904SOL    HW137719   1.999   6.142   6.961
11904SOL    HW237720   1.910   6.235   7.039
11905SOL     OW37721   2.415   5.816   6.756
11905SOL    HW137722   2.464   5.756   6.813
11905SOL    HW237723   2.324   5.804   6.786
11906SOL     OW37724   2.734   6.053   6.254
11906SOL    HW137725   2.695   6.102   6.181
11906SOL    HW237726   2.749   5.966   6.214
11907SOL     OW37727   2.887   5.632   6.368
11907SOL    HW137728   2.846   5.623   6.282
11907SOL    HW237729   2.859   5.552   6.415
11908SOL     OW37730   3.276   6.748   6.456
11908SOL    HW137731   3.237   6.660   6.467
11908SOL    HW237732   3.310   6.744   6.366
11909SOL     OW37733   3.714   6.421   5.953
11909SOL    HW137734   3.696   6.375   6.036
11909SOL    HW237735   3.672   6.359   5.890
11910SOL     OW37736   2.357   6.972   5.772
11910SOL    HW137737   2.263   6.965   5.797
11910SOL    HW237738   2.366   6.913   5.697
11911SOL     OW37739   3.532   6.839   6.271
11911SOL    HW137740   3.609   6.845   6.330
11911SOL    HW237741   3.490   6.926   6.290
11912SOL     OW37742   3.268   6.176   5.635
11912SOL    HW137743   3.238   6.147   5.723
11912SOL    HW237744   3.365   6.165   5.642
11913SOL     OW37745   2.380   5.838   5.909
11913SOL    HW137746   2.425   5.801   5.830
11913SOL    HW237747   2.363   5.929   5.877
11914SOL     OW37748   3.608   6.798   7.235
11914SOL    HW137749   3.678   6.733   7.247
11914SOL    HW237750   3.654   6.875   7.200
11915SOL     OW37751   2.925   6.905   6.917
11915SOL    HW137752   2.868   6.872   6.988
11915SOL    HW237753   3.015   6.895   6.952
11916SOL     OW37754   3.450   7.290   7.276
11916SOL    HW137755   3.432   7.335   7.192
11916SOL    HW237756   3.499   7.212   7.248
11917SOL     OW37757   2.974   6.798   6.657
11917SOL    HW137758   2.942   6.834   6.741
11917SOL    HW237759   2.938   6.859   6.591
11918SOL     OW37760   2.795   5.692   6.994
11918SOL    HW137761   2.821   5.673   6.903
11918SOL    HW237762   2.875   5.736   7.028
11919SOL     OW37763   2.854   6.697   7.331
11919SOL    HW137764   2.761   6.722   7.344
11919SOL    HW237765   2.849   6.627   7.263
11920SOL     OW37766   2.549   6.610   5.959
11920SOL    HW137767   2.554   6.623   6.055
11920SOL    HW237768   2.628   6.556   5.940
11921SOL     OW37769   2.283   6.397   6.858
11921SOL    HW137770   2.355   6.392   6.925
11921SOL    HW237771   2.244   6.308   6.862
11922SOL     OW37772   3.131   5.945   6.864
11922SOL    HW137773   3.161   6.027   6.910
11922SOL    HW237774   3.056   5.980   6.814
11923SOL     OW37775   1.940   7.153   6.933
11923SOL    HW137776   1.944   7.245   6.903
11923SOL    HW237777   2.034   7.127   6.930
11924SOL     OW37778   2.246   6.698   6.097
11924SOL    HW137779   2.237   6.760   6.024
11924SOL    HW237780   2.255   6.614   6.049
11925SOL     OW37781   2.401   6.123   6.427
11925SOL    HW137782   2.421   6.188   6.357
11925SOL    HW237783   2.468   6.147   6.495
11926SOL     OW37784   3.088   6.949   5.987
11926SOL    HW137785   3.142   7.019   6.026
11926SOL    HW237786   3.048   6.903   6.061
11927SOL     OW37787   3.096   7.057   6.746
11927SOL    HW137788   3.154   7.035   6.820
11927SOL    HW237789   3.103   6.974   6.697
11928SOL     OW37790   2.209   7.086   6.897
11928SOL    HW137791   2.198   7.057   6.804
11928SOL    HW237792   2.305   7.105   6.896
11929SOL     OW37793   2.299   6.319   7.205
11929SOL    HW137794   2.363   6.353   7.140
11929SOL    HW237795   2.318   6.224   7.203
11930SOL     OW37796   3.479   6.379   7.239
11930SOL    HW137797   3.390   6.420   7.228
11930SOL    HW237798   3.517   6.389   7.151
11931SOL     OW37799   2.847   5.697   7.341
11931SOL    HW137800   2.913   5.766   7.325
11931SOL    HW237801   2.890   5.621   7.298
11932SOL     OW37802   2.384   5.590   7.332
11932SOL    HW137803   2.331   5.535   7.272
11932SOL    HW237804   2.326   5.669   7.335
11933SOL     OW37805   2.423   6.478   6.631
11933SOL    HW137806   2.472   6.562   6.633
11933SOL    HW237807   2.389   6.468   6.721
11934SOL     OW37808   3.078   6.109   5.844
11934SOL    HW137809   3.100   6.038   5.906
11934SOL    HW237810   3.042   6.177   5.903
11935SOL     OW37811   2.144   5.787   6.833
11935SOL    HW137812   2.104   5.815   6.918
11935SOL    HW237813   2.124   5.691   6.832
11936SOL     OW37814   1.894   6.892   6.862
11936SOL    HW137815   1.926   6.835   6.934
11936SOL    HW237816   1.907   6.982   6.897
11937SOL     OW37817   2.567   6.216   6.627
11937SOL    HW137818   2.657   6.187   6.602
11937SOL    HW237819   2.569   6.312   6.613
11938SOL     OW37820   3.596   6.531   7.437
11938SOL    HW137821   3.544   6.479   7.373
11938SOL    HW237822   3.542   6.524   7.517
11939SOL     OW37823   2.166   5.649   6.203
11939SOL    HW137824   2.136   5.738   6.230
11939SOL    HW237825   2.167   5.601   6.288
11940SOL     OW37826   2.897   6.332   6.537
11940SOL    HW137827   2.921   6.354   6.628
11940SOL    HW237828   2.887   6.236   6.540
11941SOL     OW37829   2.834   7.157   7.295
11941SOL    HW137830   2.836   7.209   7.212
11941SOL    HW237831   2.879   7.075   7.267
11942SOL     OW37832   2.209   6.490   7.383
11942SOL    HW137833   2.294   6.504   7.428
11942SOL    HW237834   2.231   6.415   7.324
11943SOL     OW37835   3.320   5.840   5.705
11943SOL    HW137836   3.319   5.758   5.755
11943SOL    HW237837   3.415   5.866   5.705
11944SOL     OW37838   3.152   6.408   5.619
11944SOL    HW137839   3.198   6.321   5.620
11944SOL    HW237840   3.190   6.446   5.537
11945SOL     OW37841   2.921   6.949   6.423
11945SOL    HW137842   2.932   6.863   6.377
11945SOL    HW237843   3.010   6.989   6.417
11946SOL     OW37844   2.162   6.396   6.575
11946SOL    HW137845   2.258   6.410   6.571
11946SOL    HW237846   2.158   6.303   6.601
11947SOL     OW37847   2.189   6.124   6.588
11947SOL    HW137848   2.159   6.032   6.573
11947SOL    HW237849   2.261   6.132   6.522
11948SOL     OW37850   3.007   5.953   7.272
11948SOL    HW137851   2.962   6.009   7.338
11948SOL    HW237852   3.094   5.997   7.266
11949SOL     OW37853   3.044   5.779   7.065
11949SOL    HW137854   3.040   5.847   7.135
11949SOL    HW237855   3.080   5.831   6.991
11950SOL     OW37856   1.850   6.904   5.780
11950SOL    HW137857   1.760   6.915   5.742
11950SOL    HW237858   1.850   6.812   5.812
11951SOL     OW37859   1.957   7.373   6.532
11951SOL    HW137860   1.932   7.298   6.474
11951SOL    HW237861   2.047   7.394   6.499
11952SOL     OW37862   2.357   7.186   6.508
11952SOL    HW137863   2.428   7.243   6.544
11952SOL    HW237864   2.407   7.123   6.454
11953SOL     OW37865   2.841   6.364   6.827
11953SOL    HW137866   2.922   6.352   6.879
11953SOL    HW237867   2.777   6.309   6.872
11954SOL     OW37868   1.893   6.116   6.688
11954SOL    HW137869   1.974   6.096   6.639
11954SOL    HW237870   1.927   6.126   6.778
11955SOL     OW37871   2.077   6.129   7.313
11955SOL    HW137872   2.091   6.036   7.288
11955SOL    HW237873   2.020   6.165   7.244
11956SOL     OW37874   3.239   6.511   7.211
11956SOL    HW137875   3.275   6.602   7.223
11956SOL    HW237876   3.192   6.522   7.128
11957SOL     OW37877   2.642   6.128   5.992
11957SOL    HW137878   2.673   6.077   5.915
11957SOL    HW237879   2.583   6.193   5.952
11958SOL     OW37880   2.104   7.129   7.304
11958SOL    HW137881   2.093   7.196   7.373
11958SOL    HW237882   2.117   7.048   7.356
11959SOL     OW37883   2.562   6.058   6.845
11959SOL    HW137884   2.500   5.987   6.823
11959SOL    HW237885   2.547   6.122   6.772
11960SOL     OW37886   2.781   7.296   7.066
11960SOL    HW137887   2.768   7.258   6.978
11960SOL    HW237888   2.808   7.387   7.046
11961SOL     OW37889   2.324   6.070   5.780
11961SOL    HW137890   2.386   6.144   5.789
11961SOL    HW237891   2.239   6.117   5.769
11962SOL     OW37892   1.966   6.714   7.052
11962SOL    HW137893   1.981   6.661   7.134
11962SOL    HW237894   1.992   6.650   6.982
11963SOL     OW37895   3.135   6.630   6.808
11963SOL    HW137896   3.168   6.559   6.751
11963SOL    HW237897   3.094   6.693   6.746
11964SOL     OW37898   3.158   6.447   5.882
11964SOL    HW137899   3.081   6.403   5.920
11964SOL    HW237900   3.148   6.436   5.785
11965SOL     OW37901   3.096   7.330   6.708
11965SOL    HW137902   3.189   7.355   6.715
11965SOL    HW237903   3.099   7.233   6.719
11966SOL     OW37904   1.973   6.837   6.614
11966SOL    HW137905   1.942   6.851   6.705
11966SOL    HW237906   1.897   6.793   6.572
11967SOL     OW37907   2.564   7.228   7.324
11967SOL    HW137908   2.534   7.316   7.297
11967SOL    HW237909   2.657   7.227   7.295
11968SOL     OW37910   3.236   7.186   6.063
11968SOL    HW137911   3.271   7.204   5.976
11968SOL    HW237912   3.205   7.274   6.093
11969SOL     OW37913   2.008   7.380   7.414
11969SOL    HW137914   1.968   7.309   7.468
11969SOL    HW237915   2.060   7.427   7.482
11970SOL     OW37916   3.150   6.515   6.268
11970SOL    HW137917   3.223   6.471   6.316
11970SOL    HW237918   3.195   6.572   6.203
11971SOL     OW37919   2.679   6.831   7.042
11971SOL    HW137920   2.648   6.887   7.116
11971SOL    HW237921   2.626   6.866   6.969
11972SOL     OW37922   2.472   7.210   5.739
11972SOL    HW137923   2.543   7.179   5.682
11972SOL    HW237924   2.425   7.126   5.754
11973SOL     OW37925   3.685   5.685   6.556
11973SOL    HW137926   3.751   5.665   6.487
11973SOL    HW237927   3.641   5.761   6.514
11974SOL     OW37928   2.104   5.895   6.301
11974SOL    HW137929   2.022   5.943   6.279
11974SOL    HW237930   2.108   5.905   6.398
11975SOL     OW37931   2.691   6.580   6.965
11975SOL    HW137932   2.744   6.585   6.884
11975SOL    HW237933   2.693   6.673   6.998
11976SOL     OW37934   2.779   6.490   5.867
11976SOL    HW137935   2.841   6.513   5.794
11976SOL    HW237936   2.826   6.418   5.913
11977SOL     OW37937   2.198   6.857   7.076
11977SOL    HW137938   2.194   6.925   7.006
11977SOL    HW237939   2.119   6.805   7.060
11978SOL     OW37940   2.919   6.708   6.302
11978SOL    HW137941   2.857   6.650   6.349
11978SOL    HW237942   2.993   6.648   6.284
11979SOL     OW37943   2.891   5.811   6.579
11979SOL    HW137944   2.882   5.766   6.493
11979SOL    HW237945   2.893   5.735   6.640
11980SOL     OW37946   2.480   7.052   6.087
11980SOL    HW137947   2.504   6.998   6.011
11980SOL    HW237948   2.425   7.121   6.048
11981SOL     OW37949   3.585   5.952   6.978
11981SOL    HW137950   3.630   6.038   6.961
11981SOL    HW237951   3.628   5.895   6.910
11982SOL     OW37952   2.099   6.966   5.851
11982SOL    HW137953   2.003   6.947   5.847
11982SOL    HW237954   2.111   6.989   5.945
11983SOL     OW37955   1.986   6.601   7.289
11983SOL    HW137956   1.914   6.583   7.353
11983SOL    HW237957   2.066   6.567   7.336
11984SOL     OW37958   2.539   5.763   7.069
11984SOL    HW137959   2.630   5.738   7.045
11984SOL    HW237960   2.554   5.809   7.154
11985SOL     OW37961   1.962   5.912   5.602
11985SOL    HW137962   1.866   5.922   5.595
11985SOL    HW237963   1.993   5.991   5.555
11986SOL     OW37964   1.907   5.754   5.879
11986SOL    HW137965   1.915   5.841   5.839
11986SOL    HW237966   1.990   5.711   5.849
11987SOL     OW37967   2.491   6.398   7.018
11987SOL    HW137968   2.546   6.477   7.007
11987SOL    HW237969   2.561   6.330   7.027
11988SOL     OW37970   3.357   7.367   6.534
11988SOL    HW137971   3.423   7.424   6.491
11988SOL    HW237972   3.367   7.389   6.629
11989SOL     OW37973   2.599   6.123   7.272
11989SOL    HW137974   2.630   6.178   7.346
11989SOL    HW237975   2.611   6.031   7.303
11990SOL     OW37976   3.331   6.753   7.234
11990SOL    HW137977   3.327   6.769   7.330
11990SOL    HW237978   3.421   6.781   7.212
11991SOL     OW37979   2.240   7.327   7.153
11991SOL    HW137980   2.151   7.364   7.138
11991SOL    HW237981   2.219   7.236   7.180
11992SOL     OW37982   3.069   5.895   6.055
11992SOL    HW137983   3.157   5.855   6.064
11992SOL    HW237984   3.070   5.951   6.136
11993SOL     OW37985   2.438   6.336   6.256
11993SOL    HW137986   2.467   6.428   6.257
11993SOL    HW237987   2.367   6.337   6.189
11994SOL     OW37988   3.624   5.950   7.249
11994SOL    HW137989   3.616   5.951   7.152
11994SOL    HW237990   3.544   5.902   7.276
11995SOL     OW37991   2.524   7.389   6.552
11995SOL    HW137992   2.516   7.477   6.511
11995SOL    HW237993   2.611   7.358   6.524
11996SOL     OW37994   2.731   6.540   6.437
11996SOL    HW137995   2.788   6.468   6.471
11996SOL    HW237996   2.705   6.586   6.519
11997SOL     OW37997   2.938   6.548   5.658
11997SOL    HW137998   2.974   6.629   5.619
11997SOL    HW237999   3.012   6.487   5.639
11998SOL     OW38000   2.098   6.902   7.448
11998SOL    HW138001   2.026   6.841   7.428
11998SOL    HW238002   2.087   6.913   7.545
11999SOL     OW38003   1.946   6.835   6.252
11999SOL    HW138004   1.977   6.781   6.326
11999SOL    HW238005   2.002   6.804   6.180
12000SOL     OW38006   2.537   6.990   7.198
12000SOL    HW138007   2.464   6.941   7.240
12000SOL    HW238008   2.532   7.077   7.243
12001SOL     OW38009   3.689   5.756   6.817
12001SOL    HW138010   3.670   5.665   6.844
12001SOL    HW238011   3.698   5.744   6.720
12002SOL     OW38012   2.281   6.036   6.119
12002SOL    HW138013   2.322   5.964   6.068
12002SOL    HW238014   2.245   5.991   6.197
12003SOL     OW38015   2.171   6.136   6.869
12003SOL    HW138016   2.225   6.087   6.935
12003SOL    HW238017   2.201   6.099   6.784
12004SOL     OW38018   2.662   7.194   6.288
12004SOL    HW138019   2.706   7.181   6.202
12004SOL    HW238020   2.589   7.131   6.282
12005SOL     OW38021   3.301   5.836   6.693
12005SOL    HW138022   3.325   5.750   6.729
12005SOL    HW238023   3.244   5.875   6.763
12006SOL     OW38024   2.882   5.591   6.738
12006SOL    HW138025   2.826   5.514   6.722
12006SOL    HW238026   2.972   5.551   6.723
12007SOL     OW38027   2.460   7.149   6.837
12007SOL    HW138028   2.459   7.237   6.880
12007SOL    HW238029   2.556   7.139   6.824
12008SOL     OW38030   3.207   5.586   5.766
12008SOL    HW138031   3.181   5.582   5.673
12008SOL    HW238032   3.123   5.563   5.810
12009SOL     OW38033   3.071   6.047   6.271
12009SOL    HW138034   3.063   6.144   6.279
12009SOL    HW238035   3.112   6.020   6.355
12010SOL     OW38036   1.904   6.650   5.892
12010SOL    HW138037   1.997   6.644   5.861
12010SOL    HW238038   1.891   6.559   5.926
12011SOL     OW38039   2.098   6.227   7.581
12011SOL    HW138040   2.009   6.194   7.602
12011SOL    HW238041   2.108   6.203   7.486
12012SOL     OW38042   2.087   5.866   8.445
12012SOL    HW138043   2.111   5.845   8.538
12012SOL    HW238044   2.001   5.820   8.437
12013SOL     OW38045   1.871   5.999   8.079
12013SOL    HW138046   1.783   6.014   8.119
12013SOL    HW238047   1.860   5.911   8.041
12014SOL     OW38048   2.435   6.882   8.645
12014SOL    HW138049   2.347   6.868   8.607
12014SOL    HW238050   2.434   6.976   8.668
12015SOL     OW38051   3.402   7.119   8.161
12015SOL    HW138052   3.366   7.086   8.246
12015SOL    HW238053   3.327   7.114   8.099
12016SOL     OW38054   2.978   6.272   8.150
12016SOL    HW138055   3.013   6.359   8.126
12016SOL    HW238056   2.953   6.286   8.243
12017SOL     OW38057   3.636   6.184   7.681
12017SOL    HW138058   3.622   6.186   7.584
12017SOL    HW238059   3.590   6.102   7.707
12018SOL     OW38060   2.583   6.752   8.465
12018SOL    HW138061   2.533   6.794   8.538
12018SOL    HW238062   2.626   6.829   8.424
12019SOL     OW38063   2.739   6.337   9.249
12019SOL    HW138064   2.721   6.403   9.318
12019SOL    HW238065   2.761   6.392   9.171
12020SOL     OW38066   2.547   6.611   8.111
12020SOL    HW138067   2.612   6.586   8.179
12020SOL    HW238068   2.483   6.665   8.160
12021SOL     OW38069   2.551   6.740   9.244
12021SOL    HW138070   2.597   6.824   9.259
12021SOL    HW238071   2.461   6.768   9.218
12022SOL     OW38072   2.181   7.007   8.517
12022SOL    HW138073   2.109   6.963   8.469
12022SOL    HW238074   2.224   7.063   8.450
12023SOL     OW38075   3.344   7.078   8.832
12023SOL    HW138076   3.390   7.164   8.839
12023SOL    HW238077   3.270   7.089   8.894
12024SOL     OW38078   2.288   5.972   8.996
12024SOL    HW138079   2.364   5.919   8.969
12024SOL    HW238080   2.213   5.924   8.957
12025SOL     OW38081   3.482   6.036   8.192
12025SOL    HW138082   3.417   6.066   8.127
12025SOL    HW238083   3.458   6.089   8.269
12026SOL     OW38084   2.081   7.300   7.925
12026SOL    HW138085   2.105   7.377   7.981
12026SOL    HW238086   2.141   7.311   7.850
12027SOL     OW38087   2.981   6.935   9.113
12027SOL    HW138088   3.021   6.935   9.201
12027SOL    HW238089   2.940   6.846   9.110
12028SOL     OW38090   2.116   7.019   7.978
12028SOL    HW138091   2.113   7.116   7.979
12028SOL    HW238092   2.045   6.995   8.038
12029SOL     OW38093   2.118   6.671   8.341
12029SOL    HW138094   2.135   6.599   8.404
12029SOL    HW238095   2.074   6.737   8.397
12030SOL     OW38096   2.459   7.378   8.865
12030SOL    HW138097   2.382   7.354   8.919
12030SOL    HW238098   2.480   7.468   8.896
12031SOL     OW38099   2.437   6.568   7.558
12031SOL    HW138100   2.486   6.619   7.491
12031SOL    HW238101   2.474   6.605   7.641
12032SOL     OW38102   3.472   5.702   8.946
12032SOL    HW138103   3.466   5.777   8.885
12032SOL    HW238104   3.476   5.746   9.032
12033SOL     OW38105   1.980   6.241   8.009
12033SOL    HW138106   1.947   6.150   8.024
12033SOL    HW238107   1.968   6.281   8.097
12034SOL     OW38108   3.707   7.335   7.803
12034SOL    HW138109   3.773   7.313   7.872
12034SOL    HW238110   3.728   7.428   7.785
12035SOL     OW38111   1.922   7.179   7.567
12035SOL    HW138112   1.904   7.086   7.589
12035SOL    HW238113   1.888   7.225   7.646
12036SOL     OW38114   3.540   6.483   8.081
12036SOL    HW138115   3.618   6.449   8.036
12036SOL    HW238116   3.515   6.557   8.024
12037SOL     OW38117   3.509   6.701   7.910
12037SOL    HW138118   3.594   6.708   7.864
12037SOL    HW238119   3.516   6.774   7.975
12038SOL     OW38120   1.993   6.327   9.022
12038SOL    HW138121   2.086   6.353   9.020
12038SOL    HW238122   1.954   6.406   9.064
12039SOL     OW38123   2.457   7.000   8.208
12039SOL    HW138124   2.421   6.909   8.220
12039SOL    HW238125   2.442   7.012   8.112
12040SOL     OW38126   3.153   6.816   8.873
12040SOL    HW138127   3.189   6.748   8.813
12040SOL    HW238128   3.204   6.799   8.955
12041SOL     OW38129   2.696   5.582   7.950
12041SOL    HW138130   2.725   5.675   7.937
12041SOL    HW238131   2.600   5.593   7.963
12042SOL     OW38132   2.043   6.559   8.712
12042SOL    HW138133   2.133   6.527   8.695
12042SOL    HW238134   1.987   6.497   8.663
12043SOL     OW38135   3.411   6.538   7.658
12043SOL    HW138136   3.324   6.502   7.686
12043SOL    HW238137   3.442   6.583   7.738
12044SOL     OW38138   3.026   7.395   9.053
12044SOL    HW138139   3.038   7.465   8.986
12044SOL    HW238140   3.055   7.315   9.006
12045SOL     OW38141   2.193   5.814   9.243
12045SOL    HW138142   2.246   5.891   9.219
12045SOL    HW238143   2.118   5.856   9.289
12046SOL     OW38144   3.326   7.010   8.411
12046SOL    HW138145   3.262   7.029   8.482
12046SOL    HW238146   3.293   6.924   8.377
12047SOL     OW38147   3.512   7.330   8.051
12047SOL    HW138148   3.478   7.308   7.962
12047SOL    HW238149   3.490   7.248   8.100
12048SOL     OW38150   2.453   6.296   7.707
12048SOL    HW138151   2.453   6.384   7.666
12048SOL    HW238152   2.379   6.301   7.770
12049SOL     OW38153   3.129   5.915   8.355
12049SOL    HW138154   3.039   5.886   8.379
12049SOL    HW238155   3.183   5.877   8.428
12050SOL     OW38156   3.442   7.221   7.773
12050SOL    HW138157   3.533   7.256   7.770
12050SOL    HW238158   3.419   7.216   7.679
12051SOL     OW38159   2.676   6.196   8.908
12051SOL    HW138160   2.649   6.166   8.997
12051SOL    HW238161   2.615   6.148   8.850
12052SOL     OW38162   3.255   6.069   9.113
12052SOL    HW138163   3.259   6.128   9.191
12052SOL    HW238164   3.317   5.998   9.137
12053SOL     OW38165   2.818   6.476   9.028
12053SOL    HW138166   2.872   6.397   9.005
12053SOL    HW238167   2.787   6.501   8.940
12054SOL     OW38168   2.856   5.977   8.692
12054SOL    HW138169   2.812   6.051   8.737
12054SOL    HW238170   2.804   5.966   8.612
12055SOL     OW38171   2.895   6.276   7.851
12055SOL    HW138172   2.910   6.289   7.946
12055SOL    HW238173   2.809   6.227   7.851
12056SOL     OW38174   1.951   6.394   8.255
12056SOL    HW138175   2.028   6.387   8.314
12056SOL    HW238176   1.922   6.485   8.273
12057SOL     OW38177   1.965   7.425   9.013
12057SOL    HW138178   1.975   7.409   9.109
12057SOL    HW238179   1.870   7.418   9.000
12058SOL     OW38180   2.749   5.962   7.654
12058SOL    HW138181   2.791   6.020   7.588
12058SOL    HW238182   2.766   5.875   7.617
12059SOL     OW38183   3.583   6.200   9.299
12059SOL    HW138184   3.550   6.270   9.239
12059SOL    HW238185   3.615   6.133   9.237
12060SOL     OW38186   3.222   6.736   8.021
12060SOL    HW138187   3.304   6.728   7.970
12060SOL    HW238188   3.169   6.794   7.964
12061SOL     OW38189   2.404   5.785   8.338
12061SOL    HW138190   2.414   5.798   8.435
12061SOL    HW238191   2.389   5.875   8.307
12062SOL     OW38192   2.855   7.039   7.905
12062SOL    HW138193   2.804   7.106   7.854
12062SOL    HW238194   2.874   7.087   7.987
12063SOL     OW38195   2.207   7.404   8.304
12063SOL    HW138196   2.251   7.318   8.320
12063SOL    HW238197   2.281   7.466   8.319
12064SOL     OW38198   3.664   6.620   8.316
12064SOL    HW138199   3.609   6.618   8.237
12064SOL    HW238200   3.601   6.610   8.388
12065SOL     OW38201   3.092   7.150   8.947
12065SOL    HW138202   3.065   7.088   9.017
12065SOL    HW238203   3.048   7.108   8.870
12066SOL     OW38204   2.166   6.532   7.703
12066SOL    HW138205   2.239   6.557   7.645
12066SOL    HW238206   2.143   6.444   7.670
12067SOL     OW38207   3.332   6.341   8.159
12067SOL    HW138208   3.339   6.317   8.253
12067SOL    HW238209   3.413   6.394   8.146
12068SOL     OW38210   2.313   6.860   9.173
12068SOL    HW138211   2.274   6.867   9.083
12068SOL    HW238212   2.233   6.860   9.228
12069SOL     OW38213   2.948   7.364   7.693
12069SOL    HW138214   2.879   7.312   7.739
12069SOL    HW238215   2.963   7.314   7.612
12070SOL     OW38216   2.033   5.873   8.939
12070SOL    HW138217   1.963   5.934   8.967
12070SOL    HW238218   2.014   5.793   8.990
12071SOL     OW38219   3.478   6.944   7.552
12071SOL    HW138220   3.431   7.027   7.536
12071SOL    HW238221   3.415   6.877   7.517
12072SOL     OW38222   2.318   7.331   7.763
12072SOL    HW138223   2.365   7.376   7.835
12072SOL    HW238224   2.389   7.299   7.706
12073SOL     OW38225   3.266   5.711   7.894
12073SOL    HW138226   3.259   5.670   7.806
12073SOL    HW238227   3.362   5.727   7.903
12074SOL     OW38228   2.105   7.373   8.676
12074SOL    HW138229   2.163   7.303   8.710
12074SOL    HW238230   2.091   7.347   8.584
12075SOL     OW38231   2.817   7.288   8.332
12075SOL    HW138232   2.900   7.240   8.343
12075SOL    HW238233   2.775   7.237   8.260
12076SOL     OW38234   2.249   6.265   7.907
12076SOL    HW138235   2.277   6.175   7.930
12076SOL    HW238236   2.154   6.261   7.929
12077SOL     OW38237   3.404   5.848   9.179
12077SOL    HW138238   3.406   5.847   9.278
12077SOL    HW238239   3.339   5.778   9.163
12078SOL     OW38240   2.496   5.712   7.545
12078SOL    HW138241   2.567   5.653   7.568
12078SOL    HW238242   2.451   5.664   7.472
12079SOL     OW38243   2.629   5.837   9.176
12079SOL    HW138244   2.711   5.784   9.189
12079SOL    HW238245   2.584   5.827   9.261
12080SOL     OW38246   2.748   7.133   8.644
12080SOL    HW138247   2.742   7.101   8.552
12080SOL    HW238248   2.806   7.068   8.687
12081SOL     OW38249   3.200   6.180   8.869
12081SOL    HW138250   3.240   6.147   8.952
12081SOL    HW238251   3.245   6.266   8.857
12082SOL     OW38252   2.677   7.006   8.380
12082SOL    HW138253   2.765   6.994   8.338
12082SOL    HW238254   2.617   7.008   8.304
12083SOL     OW38255   2.800   6.090   8.362
12083SOL    HW138256   2.774   6.084   8.267
12083SOL    HW238257   2.835   6.001   8.377
12084SOL     OW38258   2.419   5.632   7.954
12084SOL    HW138259   2.345   5.645   8.016
12084SOL    HW238260   2.408   5.709   7.894
12085SOL     OW38261   3.299   6.759   7.495
12085SOL    HW138262   3.320   6.680   7.548
12085SOL    HW238263   3.209   6.782   7.523
12086SOL     OW38264   2.133   5.644   7.647
12086SOL    HW138265   2.175   5.710   7.590
12086SOL    HW238266   2.209   5.593   7.679
12087SOL     OW38267   2.793   5.837   7.925
12087SOL    HW138268   2.774   5.889   7.845
12087SOL    HW238269   2.888   5.854   7.936
12088SOL     OW38270   2.965   6.263   8.984
12088SOL    HW138271   2.897   6.225   8.927
12088SOL    HW238272   3.046   6.242   8.936
12089SOL     OW38273   3.102   7.169   8.225
12089SOL    HW138274   3.101   7.236   8.154
12089SOL    HW238275   3.173   7.199   8.281
12090SOL     OW38276   2.333   6.761   8.188
12090SOL    HW138277   2.261   6.722   8.241
12090SOL    HW238278   2.303   6.741   8.097
12091SOL     OW38279   3.128   7.391   8.058
12091SOL    HW138280   3.190   7.432   7.993
12091SOL    HW238281   3.098   7.469   8.106
12092SOL     OW38282   2.904   6.123   7.472
12092SOL    HW138283   2.859   6.206   7.448
12092SOL    HW238284   2.976   6.151   7.530
12093SOL     OW38285   1.922   6.137   8.844
12093SOL    HW138286   2.016   6.123   8.824
12093SOL    HW238287   1.926   6.218   8.900
12094SOL     OW38288   2.432   5.812   8.606
12094SOL    HW138289   2.477   5.743   8.658
12094SOL    HW238290   2.343   5.810   8.644
12095SOL     OW38291   2.738   6.046   8.106
12095SOL    HW138292   2.688   6.096   8.040
12095SOL    HW238293   2.753   5.961   8.061
12096SOL     OW38294   2.867   5.661   8.218
12096SOL    HW138295   2.835   5.637   8.131
12096SOL    HW238296   2.848   5.581   8.271
12097SOL     OW38297   3.273   6.764   8.318
12097SOL    HW138298   3.241   6.676   8.342
12097SOL    HW238299   3.267   6.761   8.221
12098SOL     OW38300   3.364   6.153   8.418
12098SOL    HW138301   3.303   6.082   8.439
12098SOL    HW238302   3.419   6.161   8.499
12099SOL     OW38303   3.691   6.403   7.837
12099SOL    HW138304   3.751   6.348   7.893
12099SOL    HW238305   3.673   6.340   7.764
12100SOL     OW38306   2.354   7.002   7.573
12100SOL    HW138307   2.271   6.985   7.620
12100SOL    HW238308   2.341   6.952   7.491
12101SOL     OW38309   3.541   6.881   8.102
12101SOL    HW138310   3.639   6.881   8.110
12101SOL    HW238311   3.514   6.970   8.128
12102SOL     OW38312   3.279   6.184   7.509
12102SOL    HW138313   3.220   6.154   7.580
12102SOL    HW238314   3.366   6.165   7.546
12103SOL     OW38315   2.382   5.821   7.768
12103SOL    HW138316   2.425   5.788   7.687
12103SOL    HW238317   2.345   5.906   7.733
12104SOL     OW38318   3.595   6.817   9.021
12104SOL    HW138319   3.684   6.788   8.994
12104SOL    HW238320   3.612   6.909   9.045
12105SOL     OW38321   2.934   6.970   8.803
12105SOL    HW138322   2.852   6.931   8.837
12105SOL    HW238323   3.002   6.909   8.838
12106SOL     OW38324   3.463   7.189   9.090
12106SOL    HW138325   3.469   7.235   9.005
12106SOL    HW238326   3.544   7.136   9.089
12107SOL     OW38327   2.986   6.828   8.553
12107SOL    HW138328   2.907   6.816   8.606
12107SOL    HW238329   2.951   6.856   8.467
12108SOL     OW38330   3.456   6.686   8.520
12108SOL    HW138331   3.464   6.746   8.597
12108SOL    HW238332   3.403   6.741   8.461
12109SOL     OW38333   2.784   5.676   8.845
12109SOL    HW138334   2.816   5.662   8.754
12109SOL    HW238335   2.856   5.729   8.883
12110SOL     OW38336   2.861   6.698   9.192
12110SOL    HW138337   2.771   6.729   9.208
12110SOL    HW238338   2.848   6.627   9.126
12111SOL     OW38339   2.563   6.640   7.789
12111SOL    HW138340   2.548   6.618   7.882
12111SOL    HW238341   2.638   6.581   7.766
12112SOL     OW38342   2.286   6.391   8.717
12112SOL    HW138343   2.363   6.392   8.776
12112SOL    HW238344   2.246   6.305   8.737
12113SOL     OW38345   3.146   5.973   8.710
12113SOL    HW138346   3.163   6.050   8.768
12113SOL    HW238347   3.054   5.988   8.682
12114SOL     OW38348   1.940   7.150   8.792
12114SOL    HW138349   1.935   7.242   8.762
12114SOL    HW238350   2.036   7.133   8.789
12115SOL     OW38351   2.226   6.702   7.945
12115SOL    HW138352   2.230   6.766   7.873
12115SOL    HW238353   2.216   6.619   7.897
12116SOL     OW38354   2.392   6.126   8.289
12116SOL    HW138355   2.414   6.189   8.217
12116SOL    HW238356   2.460   6.150   8.355
12117SOL     OW38357   3.085   6.911   7.830
12117SOL    HW138358   3.137   6.987   7.862
12117SOL    HW238359   2.995   6.939   7.858
12118SOL     OW38360   3.161   7.051   8.621
12118SOL    HW138361   3.223   7.034   8.694
12118SOL    HW238362   3.098   6.978   8.628
12119SOL     OW38363   3.440   6.204   7.919
12119SOL    HW138364   3.396   6.259   7.986
12119SOL    HW238365   3.467   6.269   7.853
12120SOL     OW38366   2.199   7.095   8.764
12120SOL    HW138367   2.188   7.058   8.673
12120SOL    HW238368   2.293   7.121   8.761
12121SOL     OW38369   2.301   6.311   9.067
12121SOL    HW138370   2.363   6.353   9.003
12121SOL    HW238371   2.336   6.221   9.072
12122SOL     OW38372   3.484   6.381   9.138
12122SOL    HW138373   3.392   6.412   9.131
12122SOL    HW238374   3.524   6.422   9.058
12123SOL     OW38375   2.855   5.699   9.199
12123SOL    HW138376   2.909   5.777   9.179
12123SOL    HW238377   2.906   5.629   9.155
12124SOL     OW38378   2.365   5.596   9.208
12124SOL    HW138379   2.321   5.539   9.141
12124SOL    HW238380   2.302   5.670   9.213
12125SOL     OW38381   2.425   6.494   8.487
12125SOL    HW138382   2.481   6.573   8.496
12125SOL    HW238383   2.394   6.478   8.577
12126SOL     OW38384   3.241   6.436   8.449
12126SOL    HW138385   3.148   6.415   8.440
12126SOL    HW238386   3.279   6.351   8.473
12127SOL     OW38387   3.080   6.107   7.721
12127SOL    HW138388   3.086   6.029   7.780
12127SOL    HW238389   3.025   6.167   7.774
12128SOL     OW38390   2.161   5.793   8.697
12128SOL    HW138391   2.117   5.825   8.778
12128SOL    HW238392   2.134   5.699   8.695
12129SOL     OW38393   1.888   6.881   8.734
12129SOL    HW138394   1.919   6.825   8.807
12129SOL    HW238395   1.900   6.972   8.766
12130SOL     OW38396   2.565   6.213   8.483
12130SOL    HW138397   2.655   6.187   8.456
12130SOL    HW238398   2.567   6.310   8.480
12131SOL     OW38399   3.632   6.549   9.302
12131SOL    HW138400   3.593   6.498   9.229
12131SOL    HW238401   3.561   6.542   9.368
12132SOL     OW38402   2.151   5.643   8.066
12132SOL    HW138403   2.131   5.735   8.092
12132SOL    HW238404   2.166   5.601   8.153
12133SOL     OW38405   3.443   5.964   7.800
12133SOL    HW138406   3.492   5.898   7.852
12133SOL    HW238407   3.443   6.043   7.858
12134SOL     OW38408   2.921   6.339   8.406
12134SOL    HW138409   2.904   6.374   8.497
12134SOL    HW238410   2.885   6.249   8.414
12135SOL     OW38411   2.833   7.155   9.151
12135SOL    HW138412   2.824   7.210   9.070
12135SOL    HW238413   2.864   7.071   9.113
12136SOL     OW38414   3.710   7.081   9.053
12136SOL    HW138415   3.735   7.104   8.961
12136SOL    HW238416   3.792   7.100   9.101
12137SOL     OW38417   2.220   6.484   9.245
12137SOL    HW138418   2.303   6.502   9.290
12137SOL    HW238419   2.244   6.408   9.187
12138SOL     OW38420   3.363   5.839   7.574
12138SOL    HW138421   3.285   5.796   7.612
12138SOL    HW238422   3.403   5.883   7.652
12139SOL     OW38423   3.162   6.440   7.467
12139SOL    HW138424   3.211   6.356   7.476
12139SOL    HW238425   3.189   6.468   7.378
12140SOL     OW38426   2.924   6.951   8.293
12140SOL    HW138427   2.930   6.871   8.236
12140SOL    HW238428   2.994   7.009   8.258
12141SOL     OW38429   2.144   6.402   8.450
12141SOL    HW138430   2.237   6.429   8.435
12141SOL    HW238431   2.156   6.309   8.477
12142SOL     OW38432   2.190   6.126   8.460
12142SOL    HW138433   2.164   6.033   8.449
12142SOL    HW238434   2.255   6.136   8.386
12143SOL     OW38435   3.010   5.953   9.144
12143SOL    HW138436   2.965   6.010   9.210
12143SOL    HW238437   3.095   5.999   9.135
12144SOL     OW38438   3.035   5.782   8.933
12144SOL    HW138439   3.030   5.850   9.004
12144SOL    HW238440   3.071   5.835   8.859
12145SOL     OW38441   1.857   6.911   7.650
12145SOL    HW138442   1.767   6.927   7.614
12145SOL    HW238443   1.851   6.819   7.682
12146SOL     OW38444   1.958   7.368   8.395
12146SOL    HW138445   1.929   7.296   8.335
12146SOL    HW238446   2.048   7.387   8.361
12147SOL     OW38447   2.342   7.181   8.373
12147SOL    HW138448   2.413   7.242   8.401
12147SOL    HW238449   2.391   7.116   8.320
12148SOL     OW38450   1.892   6.108   8.559
12148SOL    HW138451   1.969   6.095   8.502
12148SOL    HW238452   1.933   6.120   8.646
12149SOL     OW38453   2.079   6.099   9.156
12149SOL    HW138454   2.138   6.057   9.091
12149SOL    HW238455   2.040   6.172   9.105
12150SOL     OW38456   3.247   6.516   9.104
12150SOL    HW138457   3.280   6.608   9.101
12150SOL    HW238458   3.240   6.494   9.009
12151SOL     OW38459   2.659   6.158   7.814
12151SOL    HW138460   2.677   6.085   7.751
12151SOL    HW238461   2.584   6.203   7.772
12152SOL     OW38462   3.505   6.215   8.642
12152SOL    HW138463   3.479   6.155   8.713
12152SOL    HW238464   3.590   6.176   8.613
12153SOL     OW38465   2.110   7.129   9.175
12153SOL    HW138466   2.099   7.196   9.244
12153SOL    HW238467   2.115   7.047   9.226
12154SOL     OW38468   2.513   6.075   8.717
12154SOL    HW138469   2.495   5.989   8.677
12154SOL    HW238470   2.530   6.131   8.639
12155SOL     OW38471   2.781   7.288   8.926
12155SOL    HW138472   2.772   7.260   8.834
12155SOL    HW238473   2.780   7.385   8.918
12156SOL     OW38474   2.301   6.058   7.661
12156SOL    HW138475   2.366   6.129   7.652
12156SOL    HW238476   2.218   6.105   7.643
12157SOL     OW38477   1.973   6.711   8.919
12157SOL    HW138478   1.990   6.658   9.000
12157SOL    HW238479   1.997   6.648   8.847
12158SOL     OW38480   3.191   6.625   8.684
12158SOL    HW138481   3.207   6.579   8.600
12158SOL    HW238482   3.107   6.671   8.665
12159SOL     OW38483   3.170   6.447   7.736
12159SOL    HW138484   3.088   6.418   7.779
12159SOL    HW238485   3.148   6.445   7.641
12160SOL     OW38486   3.619   7.344   8.576
12160SOL    HW138487   3.693   7.358   8.514
12160SOL    HW238488   3.604   7.247   8.567
12161SOL     OW38489   3.099   7.311   8.562
12161SOL    HW138490   3.189   7.330   8.532
12161SOL    HW238491   3.104   7.215   8.581
12162SOL     OW38492   1.957   6.844   8.477
12162SOL    HW138493   1.928   6.857   8.570
12162SOL    HW238494   1.884   6.793   8.439
12163SOL     OW38495   2.550   7.230   9.192
12163SOL    HW138496   2.512   7.317   9.172
12163SOL    HW238497   2.639   7.236   9.153
12164SOL     OW38498   3.540   5.731   7.939
12164SOL    HW138499   3.606   5.721   7.868
12164SOL    HW238500   3.548   5.646   7.987
12165SOL     OW38501   3.216   7.158   7.920
12165SOL    HW138502   3.290   7.177   7.859
12165SOL    HW238503   3.182   7.247   7.939
12166SOL     OW38504   2.009   7.383   9.278
12166SOL    HW138505   1.972   7.310   9.332
12166SOL    HW238506   2.051   7.436   9.348
12167SOL     OW38507   3.109   6.503   8.104
12167SOL    HW138508   3.188   6.449   8.126
12167SOL    HW238509   3.150   6.583   8.067
12168SOL     OW38510   2.687   6.880   8.867
12168SOL    HW138511   2.648   6.925   8.945
12168SOL    HW238512   2.608   6.874   8.810
12169SOL     OW38513   2.516   7.210   7.603
12169SOL    HW138514   2.539   7.217   7.509
12169SOL    HW238515   2.459   7.129   7.602
12170SOL     OW38516   3.481   7.309   8.841
12170SOL    HW138517   3.527   7.325   8.757
12170SOL    HW238518   3.472   7.400   8.878
12171SOL     OW38519   3.701   5.753   8.421
12171SOL    HW138520   3.724   5.664   8.390
12171SOL    HW238521   3.615   5.770   8.377
12172SOL     OW38522   2.117   5.905   8.159
12172SOL    HW138523   2.042   5.959   8.130
12172SOL    HW238524   2.113   5.914   8.255
12173SOL     OW38525   3.045   7.223   7.475
12173SOL    HW138526   3.047   7.126   7.481
12173SOL    HW238527   2.991   7.238   7.395
12174SOL     OW38528   2.648   6.601   8.826
12174SOL    HW138529   2.708   6.555   8.763
12174SOL    HW238530   2.688   6.689   8.834
12175SOL     OW38531   2.764   6.488   7.724
12175SOL    HW138532   2.836   6.527   7.671
12175SOL    HW238533   2.807   6.410   7.764
12176SOL     OW38534   3.345   7.182   7.501
12176SOL    HW138535   3.250   7.203   7.497
12176SOL    HW238536   3.379   7.228   7.422
12177SOL     OW38537   2.197   6.866   8.933
12177SOL    HW138538   2.189   6.939   8.870
12177SOL    HW238539   2.115   6.815   8.920
12178SOL     OW38540   3.461   6.878   8.713
12178SOL    HW138541   3.538   6.864   8.769
12178SOL    HW238542   3.412   6.947   8.763
12179SOL     OW38543   2.902   6.710   8.165
12179SOL    HW138544   2.834   6.655   8.208
12179SOL    HW238545   2.962   6.643   8.130
12180SOL     OW38546   2.891   5.815   8.431
12180SOL    HW138547   2.876   5.767   8.347
12180SOL    HW238548   2.889   5.742   8.496
12181SOL     OW38549   2.458   7.055   7.942
12181SOL    HW138550   2.511   7.016   7.871
12181SOL    HW238551   2.394   7.108   7.893
12182SOL     OW38552   3.564   5.967   8.824
12182SOL    HW138553   3.628   6.040   8.833
12182SOL    HW238554   3.615   5.901   8.772
12183SOL     OW38555   2.107   6.961   7.717
12183SOL    HW138556   2.010   6.945   7.709
12183SOL    HW238557   2.115   6.985   7.811
12184SOL     OW38558   1.989   6.586   9.152
12184SOL    HW138559   1.918   6.577   9.218
12184SOL    HW238560   2.070   6.560   9.200
12185SOL     OW38561   2.534   5.768   8.933
12185SOL    HW138562   2.621   5.735   8.901
12185SOL    HW238563   2.559   5.808   9.018
12186SOL     OW38564   1.913   5.997   7.530
12186SOL    HW138565   1.861   5.962   7.457
12186SOL    HW238566   2.003   5.978   7.499
12187SOL     OW38567   3.313   6.446   8.843
12187SOL    HW138568   3.261   6.503   8.783
12187SOL    HW238569   3.404   6.473   8.820
12188SOL     OW38570   1.900   5.748   7.741
12188SOL    HW138571   1.901   5.836   7.701
12188SOL    HW238572   1.985   5.712   7.708
12189SOL     OW38573   3.067   6.930   7.561
12189SOL    HW138574   2.987   6.877   7.570
12189SOL    HW238575   3.092   6.941   7.655
12190SOL     OW38576   2.491   6.388   8.882
12190SOL    HW138577   2.539   6.473   8.877
12190SOL    HW238578   2.566   6.326   8.884
12191SOL     OW38579   3.362   7.352   8.419
12191SOL    HW138580   3.398   7.387   8.337
12191SOL    HW238581   3.442   7.338   8.472
12192SOL     OW38582   2.591   6.124   9.149
12192SOL    HW138583   2.635   6.194   9.201
12192SOL    HW238584   2.626   6.042   9.185
12193SOL     OW38585   3.332   6.767   9.073
12193SOL    HW138586   3.328   6.776   9.170
12193SOL    HW238587   3.425   6.789   9.053
12194SOL     OW38588   2.228   7.323   9.011
12194SOL    HW138589   2.142   7.367   8.996
12194SOL    HW238590   2.199   7.237   9.047
12195SOL     OW38591   3.564   6.483   8.688
12195SOL    HW138592   3.546   6.391   8.664
12195SOL    HW238593   3.521   6.534   8.617
12196SOL     OW38594   3.063   5.900   7.919
12196SOL    HW138595   3.137   5.837   7.909
12196SOL    HW238596   3.098   5.959   7.989
12197SOL     OW38597   2.443   6.337   8.114
12197SOL    HW138598   2.477   6.428   8.105
12197SOL    HW238599   2.380   6.330   8.041
12198SOL     OW38600   3.635   5.966   9.082
12198SOL    HW138601   3.588   5.969   8.997
12198SOL    HW238602   3.574   5.916   9.138
12199SOL     OW38603   3.592   6.538   8.952
12199SOL    HW138604   3.583   6.634   8.958
12199SOL    HW238605   3.608   6.523   8.857
12200SOL     OW38606   2.703   6.950   7.470
12200SOL    HW138607   2.688   6.967   7.564
12200SOL    HW238608   2.741   7.033   7.437
12201SOL     OW38609   2.505   7.397   8.399
12201SOL    HW138610   2.493   7.490   8.372
12201SOL    HW238611   2.600   7.383   8.389
12202SOL     OW38612   2.740   6.532   8.298
12202SOL    HW138613   2.792   6.457   8.332
12202SOL    HW238614   2.722   6.583   8.378
12203SOL     OW38615   2.949   6.593   7.559
12203SOL    HW138616   2.914   6.638   7.479
12203SOL    HW238617   3.015   6.535   7.519
12204SOL     OW38618   3.724   7.144   8.285
12204SOL    HW138619   3.633   7.115   8.296
12204SOL    HW238620   3.774   7.083   8.341
12205SOL     OW38621   2.095   6.896   9.318
12205SOL    HW138622   2.010   6.854   9.299
12205SOL    HW238623   2.093   6.903   9.415
12206SOL     OW38624   1.948   6.836   8.106
12206SOL    HW138625   1.958   6.783   8.187
12206SOL    HW238626   2.024   6.807   8.054
12207SOL     OW38627   2.529   6.988   9.061
12207SOL    HW138628   2.455   6.933   9.092
12207SOL    HW238629   2.516   7.071   9.110
12208SOL     OW38630   3.685   5.758   8.687
12208SOL    HW138631   3.690   5.662   8.691
12208SOL    HW238632   3.688   5.772   8.590
12209SOL     OW38633   2.311   6.006   7.987
12209SOL    HW138634   2.339   5.936   7.927
12209SOL    HW238635   2.262   5.960   8.058
12210SOL     OW38636   3.565   7.090   8.553
12210SOL    HW138637   3.482   7.058   8.514
12210SOL    HW238638   3.587   7.017   8.613
12211SOL     OW38639   2.184   6.112   8.736
12211SOL    HW138640   2.268   6.082   8.776
12211SOL    HW238641   2.203   6.106   8.641
12212SOL     OW38642   2.683   7.179   8.117
12212SOL    HW138643   2.674   7.212   8.027
12212SOL    HW238644   2.601   7.130   8.131
12213SOL     OW38645   3.294   5.824   8.549
12213SOL    HW138646   3.337   5.756   8.603
12213SOL    HW238647   3.243   5.874   8.617
12214SOL     OW38648   2.883   5.590   8.601
12214SOL    HW138649   2.828   5.514   8.579
12214SOL    HW238650   2.974   5.551   8.597
12215SOL     OW38651   2.643   6.920   7.761
12215SOL    HW138652   2.617   6.827   7.761
12215SOL    HW238653   2.719   6.922   7.822
12216SOL     OW38654   2.457   7.153   8.714
12216SOL    HW138655   2.460   7.235   8.767
12216SOL    HW238656   2.551   7.144   8.693
12217SOL     OW38657   3.187   5.608   7.638
12217SOL    HW138658   3.197   5.549   7.562
12217SOL    HW238659   3.097   5.584   7.669
12218SOL     OW38660   3.142   6.063   8.125
12218SOL    HW138661   3.079   6.138   8.133
12218SOL    HW238662   3.131   6.018   8.211
12219SOL     OW38663   3.462   5.789   8.317
12219SOL    HW138664   3.384   5.803   8.374
12219SOL    HW238665   3.463   5.869   8.263
12220SOL     OW38666   1.906   6.660   7.758
12220SOL    HW138667   1.999   6.651   7.731
12220SOL    HW238668   1.887   6.568   7.785
12221SOL     OW38669   2.723   7.238   7.781
12221SOL    HW138670   2.646   7.225   7.723
12221SOL    HW238671   2.703   7.320   7.831
12222SOL     OW38672   2.094   6.231   9.435
12222SOL    HW138673   2.001   6.226   9.460
12222SOL    HW238674   2.096   6.198   9.343
12223SOL     OW38675   2.066   5.898  10.304
12223SOL    HW138676   2.098   5.858  10.387
12223SOL    HW238677   1.992   5.837  10.282
12224SOL     OW38678   1.865   5.994   9.944
12224SOL    HW138679   1.781   6.018   9.988
12224SOL    HW238680   1.841   5.910   9.904
12225SOL     OW38681   2.428   6.880  10.458
12225SOL    HW138682   2.333   6.871  10.444
12225SOL    HW238683   2.432   6.960  10.513
12226SOL     OW38684   2.988   6.267  10.003
12226SOL    HW138685   3.023   6.356   9.987
12226SOL    HW238686   2.931   6.282  10.080
12227SOL     OW38687   3.634   6.192   9.556
12227SOL    HW138688   3.619   6.204   9.459
12227SOL    HW238689   3.613   6.098   9.566
12228SOL     OW38690   2.631   6.744  10.353
12228SOL    HW138691   2.556   6.786  10.400
12228SOL    HW238692   2.654   6.816  10.292
12229SOL     OW38693   2.675   6.366   0.013
12229SOL    HW138694   2.703   6.419   0.088
12229SOL    HW238695   2.729   6.405  11.042
12230SOL     OW38696   2.559   6.613   9.973
12230SOL    HW138697   2.616   6.582  10.046
12230SOL    HW238698   2.489   6.662  10.020
12231SOL     OW38699   2.180   7.018  10.384
12231SOL    HW138700   2.107   6.979  10.334
12231SOL    HW238701   2.234   7.060  10.316
12232SOL     OW38702   3.334   7.082  10.664
12232SOL    HW138703   3.389   7.163  10.675
12232SOL    HW238704   3.268   7.095  10.733
12233SOL     OW38705   2.306   5.963  10.772
12233SOL    HW138706   2.389   5.912  10.776
12233SOL    HW238707   2.255   5.925  10.844
12234SOL     OW38708   3.482   6.017  10.048
12234SOL    HW138709   3.424   6.063   9.986
12234SOL    HW238710   3.487   6.080  10.121
12235SOL     OW38711   2.083   7.303   9.792
12235SOL    HW138712   2.112   7.385   9.836
12235SOL    HW238713   2.140   7.301   9.714
12236SOL     OW38714   2.115   7.018   9.844
12236SOL    HW138715   2.107   7.114   9.851
12236SOL    HW238716   2.041   6.986   9.898
12237SOL     OW38717   2.126   6.662  10.189
12237SOL    HW138718   2.132   6.588  10.250
12237SOL    HW238719   2.073   6.726  10.240
12238SOL     OW38720   2.465   7.380  10.746
12238SOL    HW138721   2.385   7.359  10.799
12238SOL    HW238722   2.476   7.476  10.761
12239SOL     OW38723   2.432   6.578   9.419
12239SOL    HW138724   2.484   6.623   9.349
12239SOL    HW238725   2.475   6.614   9.499
12240SOL     OW38726   3.453   5.696  10.788
12240SOL    HW138727   3.454   5.784  10.747
12240SOL    HW238728   3.452   5.715  10.882
12241SOL     OW38729   1.967   6.236   9.869
12241SOL    HW138730   1.941   6.144   9.886
12241SOL    HW238731   1.964   6.276   9.958
12242SOL     OW38732   3.708   7.312   9.671
12242SOL    HW138733   3.790   7.296   9.723
12242SOL    HW238734   3.717   7.405   9.648
12243SOL     OW38735   1.931   7.183   9.443
12243SOL    HW138736   1.907   7.092   9.463
12243SOL    HW238737   1.890   7.232   9.516
12244SOL     OW38738   3.548   6.514   9.980
12244SOL    HW138739   3.625   6.468   9.944
12244SOL    HW238740   3.512   6.557   9.902
12245SOL     OW38741   3.503   6.717   9.751
12245SOL    HW138742   3.593   6.699   9.718
12245SOL    HW238743   3.518   6.788   9.814
12246SOL     OW38744   1.980   6.318  10.897
12246SOL    HW138745   2.057   6.354  10.945
12246SOL    HW238746   1.920   6.395  10.903
12247SOL     OW38747   2.468   6.990  10.072
12247SOL    HW138748   2.424   6.903  10.084
12247SOL    HW238749   2.461   6.998   9.975
12248SOL     OW38750   3.159   6.826  10.736
12248SOL    HW138751   3.179   6.759  10.667
12248SOL    HW238752   3.212   6.797  10.811
12249SOL     OW38753   2.701   5.585   9.820
12249SOL    HW138754   2.734   5.676   9.809
12249SOL    HW238755   2.605   5.599   9.829
12250SOL     OW38756   2.038   6.520  10.623
12250SOL    HW138757   2.126   6.491  10.595
12250SOL    HW238758   1.990   6.534  10.541
12251SOL     OW38759   3.414   6.545   9.484
12251SOL    HW138760   3.335   6.496   9.513
12251SOL    HW238761   3.443   6.587   9.566
12252SOL     OW38762   3.112   7.405  10.893
12252SOL    HW138763   3.066   7.466  10.834
12252SOL    HW238764   3.097   7.319  10.849
12253SOL     OW38765   2.224   5.840  11.087
12253SOL    HW138766   2.266   5.890   0.056
12253SOL    HW238767   2.132   5.873  11.094
12254SOL     OW38768   3.333   6.997  10.247
12254SOL    HW138769   3.277   7.024  10.323
12254SOL    HW238770   3.305   6.905  10.235
12255SOL     OW38771   3.507   7.317   9.927
12255SOL    HW138772   3.508   7.291   9.833
12255SOL    HW238773   3.575   7.261   9.967
12256SOL     OW38774   2.451   6.296   9.587
12256SOL    HW138775   2.453   6.380   9.540
12256SOL    HW238776   2.377   6.308   9.649
12257SOL     OW38777   3.141   5.926  10.232
12257SOL    HW138778   3.051   5.891  10.247
12257SOL    HW238779   3.192   5.883  10.302
12258SOL     OW38780   3.441   7.236   9.623
12258SOL    HW138781   3.537   7.249   9.620
12258SOL    HW238782   3.422   7.229   9.528
12259SOL     OW38783   2.661   6.209  10.771
12259SOL    HW138784   2.641   6.178  10.862
12259SOL    HW238785   2.618   6.140  10.716
12260SOL     OW38786   2.806   6.452  10.887
12260SOL    HW138787   2.864   6.389  10.841
12260SOL    HW238788   2.763   6.499  10.814
12261SOL     OW38789   2.833   5.963  10.555
12261SOL    HW138790   2.746   5.987  10.590
12261SOL    HW238791   2.811   5.913  10.475
12262SOL     OW38792   2.893   6.267   9.722
12262SOL    HW138793   2.909   6.284   9.816
12262SOL    HW238794   2.808   6.219   9.724
12263SOL     OW38795   1.959   6.386  10.107
12263SOL    HW138796   2.034   6.404  10.166
12263SOL    HW238797   1.910   6.470  10.110
12264SOL     OW38798   1.974   7.429  10.872
12264SOL    HW138799   1.969   7.374  10.952
12264SOL    HW238800   1.882   7.430  10.842
12265SOL     OW38801   2.746   5.969   9.514
12265SOL    HW138802   2.790   6.026   9.448
12265SOL    HW238803   2.772   5.882   9.484
12266SOL     OW38804   3.234   6.757   9.879
12266SOL    HW138805   3.299   6.732   9.812
12266SOL    HW238806   3.169   6.807   9.826
12267SOL     OW38807   2.412   5.785  10.205
12267SOL    HW138808   2.425   5.799  10.301
12267SOL    HW238809   2.406   5.875  10.170
12268SOL     OW38810   2.867   7.045   9.793
12268SOL    HW138811   2.817   7.101   9.730
12268SOL    HW238812   2.846   7.085   9.878
12269SOL     OW38813   2.206   7.392  10.156
12269SOL    HW138814   2.249   7.306  10.175
12269SOL    HW238815   2.277   7.455  10.177
12270SOL     OW38816   3.638   6.675  10.182
12270SOL    HW138817   3.606   6.611  10.115
12270SOL    HW238818   3.589   6.647  10.262
12271SOL     OW38819   3.089   7.154  10.794
12271SOL    HW138820   3.072   7.090  10.864
12271SOL    HW238821   3.028   7.122  10.725
12272SOL     OW38822   2.173   6.537   9.549
12272SOL    HW138823   2.251   6.561   9.497
12272SOL    HW238824   2.148   6.451   9.510
12273SOL     OW38825   3.329   6.349  10.041
12273SOL    HW138826   3.328   6.305  10.127
12273SOL    HW238827   3.417   6.391  10.041
12274SOL     OW38828   2.337   6.863  11.042
12274SOL    HW138829   2.305   6.864  10.949
12274SOL    HW238830   2.292   6.785  11.076
12275SOL     OW38831   2.955   7.356   9.551
12275SOL    HW138832   2.880   7.309   9.591
12275SOL    HW238833   2.969   7.303   9.469
12276SOL     OW38834   2.018   5.873  10.798
12276SOL    HW138835   1.941   5.878  10.858
12276SOL    HW238836   2.055   5.788  10.826
12277SOL     OW38837   3.486   6.951   9.405
12277SOL    HW138838   3.446   7.036   9.382
12277SOL    HW238839   3.423   6.885   9.367
12278SOL     OW38840   2.319   7.324   9.631
12278SOL    HW138841   2.367   7.374   9.699
12278SOL    HW238842   2.390   7.290   9.575
12279SOL     OW38843   3.274   5.698   9.742
12279SOL    HW138844   3.268   5.652   9.656
12279SOL    HW238845   3.370   5.711   9.753
12280SOL     OW38846   2.099   7.382  10.536
12280SOL    HW138847   2.163   7.319  10.572
12280SOL    HW238848   2.081   7.346  10.448
12281SOL     OW38849   2.821   7.304  10.181
12281SOL    HW138850   2.863   7.239  10.238
12281SOL    HW238851   2.778   7.247  10.114
12282SOL     OW38852   2.230   6.284   9.770
12282SOL    HW138853   2.254   6.192   9.791
12282SOL    HW238854   2.134   6.281   9.786
12283SOL     OW38855   2.486   5.714   9.415
12283SOL    HW138856   2.559   5.655   9.436
12283SOL    HW238857   2.441   5.665   9.344
12284SOL     OW38858   2.634   5.827  11.029
12284SOL    HW138859   2.713   5.807  11.080
12284SOL    HW238860   2.587   5.890  11.085
12285SOL     OW38861   2.764   7.125  10.502
12285SOL    HW138862   2.738   7.077  10.421
12285SOL    HW238863   2.828   7.065  10.544
12286SOL     OW38864   3.204   6.178  10.728
12286SOL    HW138865   3.258   6.149  10.802
12286SOL    HW238866   3.246   6.265  10.708
12287SOL     OW38867   2.693   6.997  10.266
12287SOL    HW138868   2.777   6.988  10.216
12287SOL    HW238869   2.628   6.997  10.194
12288SOL     OW38870   2.796   6.117  10.219
12288SOL    HW138871   2.768   6.106  10.125
12288SOL    HW238872   2.825   6.027  10.240
12289SOL     OW38873   2.424   5.636   9.816
12289SOL    HW138874   2.349   5.645   9.877
12289SOL    HW238875   2.411   5.715   9.760
12290SOL     OW38876   3.311   6.762   9.337
12290SOL    HW138877   3.338   6.681   9.385
12290SOL    HW238878   3.218   6.771   9.360
12291SOL     OW38879   2.136   5.638   9.512
12291SOL    HW138880   2.195   5.708   9.482
12291SOL    HW238881   2.201   5.575   9.550
12292SOL     OW38882   2.797   5.843   9.804
12292SOL    HW138883   2.774   5.893   9.724
12292SOL    HW238884   2.894   5.854   9.806
12293SOL     OW38885   2.956   6.275  10.752
12293SOL    HW138886   2.906   6.195  10.771
12293SOL    HW238887   3.048   6.244  10.753
12294SOL     OW38888   3.117   7.146  10.081
12294SOL    HW138889   3.088   7.219  10.023
12294SOL    HW238890   3.141   7.193  10.161
12295SOL     OW38891   2.334   6.750  10.047
12295SOL    HW138892   2.259   6.717  10.101
12295SOL    HW238893   2.301   6.729   9.957
12296SOL     OW38894   3.132   7.396   9.916
12296SOL    HW138895   3.172   7.468   9.863
12296SOL    HW238896   3.085   7.446   9.985
12297SOL     OW38897   2.916   6.113   9.341
12297SOL    HW138898   2.876   6.199   9.316
12297SOL    HW238899   2.988   6.138   9.401
12298SOL     OW38900   2.426   5.815  10.481
12298SOL    HW138901   2.467   5.738  10.522
12298SOL    HW238902   2.335   5.808  10.514
12299SOL     OW38903   2.735   6.062   9.969
12299SOL    HW138904   2.686   6.102   9.895
12299SOL    HW238905   2.756   5.974   9.935
12300SOL     OW38906   2.901   5.662  10.079
12300SOL    HW138907   2.860   5.647   9.993
12300SOL    HW238908   2.872   5.583  10.129
12301SOL     OW38909   3.276   6.746  10.189
12301SOL    HW138910   3.213   6.682  10.225
12301SOL    HW238911   3.268   6.728  10.094
12302SOL     OW38912   3.332   6.190  10.294
12302SOL    HW138913   3.287   6.105  10.298
12302SOL    HW238914   3.395   6.185  10.368
12303SOL     OW38915   3.683   6.408   9.712
12303SOL    HW138916   3.745   6.354   9.766
12303SOL    HW238917   3.666   6.346   9.638
12304SOL     OW38918   2.356   7.003   9.428
12304SOL    HW138919   2.275   6.990   9.480
12304SOL    HW238920   2.338   6.954   9.347
12305SOL     OW38921   3.539   6.904   9.996
12305SOL    HW138922   3.634   6.885   9.980
12305SOL    HW238923   3.524   6.855  10.079
12306SOL     OW38924   3.267   6.178   9.366
12306SOL    HW138925   3.225   6.150   9.449
12306SOL    HW238926   3.361   6.159   9.383
12307SOL     OW38927   2.378   5.831   9.637
12307SOL    HW138928   2.424   5.797   9.558
12307SOL    HW238929   2.346   5.916   9.602
12308SOL     OW38930   3.615   6.812  10.866
12308SOL    HW138931   3.708   6.794  10.887
12308SOL    HW238932   3.601   6.897  10.909
12309SOL     OW38933   2.922   6.955  10.666
12309SOL    HW138934   2.848   6.906  10.705
12309SOL    HW238935   2.999   6.899  10.689
12310SOL     OW38936   2.969   6.813  10.407
12310SOL    HW138937   2.886   6.816  10.455
12310SOL    HW238938   2.949   6.863  10.326
12311SOL     OW38939   3.474   6.672  10.403
12311SOL    HW138940   3.487   6.740  10.473
12311SOL    HW238941   3.400   6.711  10.354
12312SOL     OW38942   2.768   5.686  10.688
12312SOL    HW138943   2.802   5.657  10.601
12312SOL    HW238944   2.848   5.724  10.729
12313SOL     OW38945   2.574   6.647   9.646
12313SOL    HW138946   2.567   6.624   9.740
12313SOL    HW238947   2.648   6.589   9.617
12314SOL     OW38948   2.291   6.401  10.581
12314SOL    HW138949   2.360   6.409  10.650
12314SOL    HW238950   2.267   6.307  10.586
12315SOL     OW38951   3.129   5.959  10.591
12315SOL    HW138952   3.153   6.042  10.637
12315SOL    HW238953   3.047   5.982  10.545
12316SOL     OW38954   1.934   7.148  10.636
12316SOL    HW138955   1.909   7.238  10.609
12316SOL    HW238956   2.031   7.153  10.647
12317SOL     OW38957   2.239   6.685   9.803
12317SOL    HW138958   2.252   6.753   9.736
12317SOL    HW238959   2.226   6.605   9.750
12318SOL     OW38960   2.403   6.114  10.149
12318SOL    HW138961   2.426   6.180  10.080
12318SOL    HW238962   2.466   6.136  10.219
12319SOL     OW38963   3.102   6.952   9.698
12319SOL    HW138964   3.148   7.034   9.723
12319SOL    HW238965   3.012   6.971   9.732
12320SOL     OW38966   3.161   7.035  10.460
12320SOL    HW138967   3.217   7.036  10.540
12320SOL    HW238968   3.096   6.967  10.481
12321SOL     OW38969   3.451   6.193   9.803
12321SOL    HW138970   3.396   6.266   9.835
12321SOL    HW238971   3.495   6.230   9.725
12322SOL     OW38972   2.205   7.082  10.638
12322SOL    HW138973   2.190   7.055  10.545
12322SOL    HW238974   2.301   7.102  10.639
12323SOL     OW38975   2.307   6.298  10.926
12323SOL    HW138976   2.365   6.351  10.867
12323SOL    HW238977   2.351   6.212  10.925
12324SOL     OW38978   3.466   6.339  10.982
12324SOL    HW138979   3.428   6.400  11.046
12324SOL    HW238980   3.523   6.398  10.929
12325SOL     OW38981   2.414   6.486  10.347
12325SOL    HW138982   2.467   6.567  10.349
12325SOL    HW238983   2.389   6.473  10.441
12326SOL     OW38984   3.195   6.451  10.324
12326SOL    HW138985   3.113   6.413  10.287
12326SOL    HW238986   3.251   6.372  10.333
12327SOL     OW38987   3.086   6.112   9.580
12327SOL    HW138988   3.093   6.038   9.643
12327SOL    HW238989   3.018   6.167   9.623
12328SOL     OW38990   2.145   5.786  10.545
12328SOL    HW138991   2.101   5.817  10.626
12328SOL    HW238992   2.126   5.690  10.546
12329SOL     OW38993   1.922   6.868  10.591
12329SOL    HW138994   1.944   6.819  10.673
12329SOL    HW238995   1.913   6.960  10.623
12330SOL     OW38996   2.571   6.221  10.349
12330SOL    HW138997   2.657   6.198  10.307
12330SOL    HW238998   2.555   6.313  10.322
12331SOL     OW38999   2.176   5.647   9.931
12331SOL    HW139000   2.140   5.736   9.951
12331SOL    HW239001   2.175   5.603  10.018
12332SOL     OW39002   3.450   5.967   9.660
12332SOL    HW139003   3.486   5.896   9.716
12332SOL    HW239004   3.447   6.042   9.722
12333SOL     OW39005   2.919   6.352  10.275
12333SOL    HW139006   2.899   6.368  10.369
12333SOL    HW239007   2.891   6.259  10.264
12334SOL     OW39008   2.854   7.135  10.968
12334SOL    HW139009   2.842   7.197  10.893
12334SOL    HW239010   2.813   7.054  10.933
12335SOL     OW39011   3.711   7.084  10.901
12335SOL    HW139012   3.732   7.107  10.810
12335SOL    HW239013   3.795   7.100  10.947
12336SOL     OW39014   2.240   6.508  11.071
12336SOL    HW139015   2.314   6.518   0.032
12336SOL    HW239016   2.264   6.425  11.025
12337SOL     OW39017   3.356   5.839   9.439
12337SOL    HW139018   3.278   5.794   9.476
12337SOL    HW239019   3.395   5.885   9.515
12338SOL     OW39020   3.156   6.424   9.337
12338SOL    HW139021   3.195   6.334   9.339
12338SOL    HW239022   3.184   6.454   9.248
12339SOL     OW39023   2.925   6.951  10.155
12339SOL    HW139024   2.925   6.869  10.101
12339SOL    HW239025   2.998   7.003  10.118
12340SOL     OW39026   2.148   6.407  10.316
12340SOL    HW139027   2.242   6.431  10.318
12340SOL    HW239028   2.152   6.310  10.314
12341SOL     OW39029   2.194   6.132  10.308
12341SOL    HW139030   2.150   6.047  10.290
12341SOL    HW239031   2.267   6.130  10.243
12342SOL     OW39032   3.014   5.787  10.771
12342SOL    HW139033   3.048   5.840  10.844
12342SOL    HW239034   3.045   5.838  10.694
12343SOL     OW39035   1.854   6.909   9.506
12343SOL    HW139036   1.764   6.922   9.470
12343SOL    HW239037   1.850   6.817   9.538
12344SOL     OW39038   1.954   7.368  10.245
12344SOL    HW139039   1.926   7.289  10.195
12344SOL    HW239040   2.045   7.382  10.210
12345SOL     OW39041   2.356   7.179  10.243
12345SOL    HW139042   2.429   7.241  10.261
12345SOL    HW239043   2.399   7.112  10.186
12346SOL     OW39044   2.839   6.381  10.539
12346SOL    HW139045   2.899   6.344  10.608
12346SOL    HW239046   2.754   6.347  10.569
12347SOL     OW39047   1.926   6.137  10.492
12347SOL    HW139048   1.950   6.056  10.444
12347SOL    HW239049   1.968   6.205  10.437
12348SOL     OW39050   2.657   6.142   9.709
12348SOL    HW139051   2.674   6.085   9.631
12348SOL    HW239052   2.579   6.193   9.681
12349SOL     OW39053   3.513   6.199  10.503
12349SOL    HW139054   3.503   6.124  10.564
12349SOL    HW239055   3.597   6.175  10.458
12350SOL     OW39056   2.096   7.141  11.032
12350SOL    HW139057   2.043   7.171   0.008
12350SOL    HW239058   2.153   7.074  11.072
12351SOL     OW39059   2.547   6.064  10.579
12351SOL    HW139060   2.502   5.985  10.544
12351SOL    HW239061   2.545   6.126  10.503
12352SOL     OW39062   2.814   7.284  10.741
12352SOL    HW139063   2.783   7.243  10.658
12352SOL    HW239064   2.768   7.369  10.744
12353SOL     OW39065   2.300   6.062   9.520
12353SOL    HW139066   2.371   6.129   9.523
12353SOL    HW239067   2.223   6.117   9.496
12354SOL     OW39068   2.012   6.723  10.794
12354SOL    HW139069   2.007   6.671  10.877
12354SOL    HW239070   2.027   6.652  10.729
12355SOL     OW39071   3.163   6.638  10.536
12355SOL    HW139072   3.187   6.571  10.469
12355SOL    HW239073   3.092   6.687  10.492
12356SOL     OW39074   3.169   6.446   9.606
12356SOL    HW139075   3.088   6.408   9.641
12356SOL    HW239076   3.153   6.445   9.510
12357SOL     OW39077   3.617   7.338  10.426
12357SOL    HW139078   3.694   7.356  10.369
12357SOL    HW239079   3.612   7.240  10.421
12358SOL     OW39080   3.092   7.295  10.432
12358SOL    HW139081   3.183   7.324  10.414
12358SOL    HW239082   3.103   7.199  10.444
12359SOL     OW39083   1.969   6.829  10.336
12359SOL    HW139084   1.949   6.845  10.432
12359SOL    HW239085   1.882   6.806  10.302
12360SOL     OW39086   3.545   5.732   9.800
12360SOL    HW139087   3.625   5.724   9.745
12360SOL    HW239088   3.545   5.649   9.851
12361SOL     OW39089   3.247   7.171   9.804
12361SOL    HW139090   3.305   7.199   9.729
12361SOL    HW239091   3.197   7.253   9.822
12362SOL     OW39092   3.112   6.509   9.984
12362SOL    HW139093   3.191   6.455  10.002
12362SOL    HW239094   3.149   6.581   9.929
12363SOL     OW39095   2.678   6.846  10.749
12363SOL    HW139096   2.648   6.876  10.836
12363SOL    HW239097   2.609   6.881  10.691
12364SOL     OW39098   2.528   7.201   9.469
12364SOL    HW139099   2.540   7.214   9.373
12364SOL    HW239100   2.469   7.123   9.469
12365SOL     OW39101   3.485   7.298  10.680
12365SOL    HW139102   3.533   7.320  10.599
12365SOL    HW239103   3.471   7.386  10.720
12366SOL     OW39104   3.718   5.756  10.268
12366SOL    HW139105   3.734   5.663  10.244
12366SOL    HW239106   3.627   5.772  10.234
12367SOL     OW39107   2.108   5.893  10.013
12367SOL    HW139108   2.026   5.943   9.993
12367SOL    HW239109   2.117   5.906  10.109
12368SOL     OW39110   3.039   7.215   9.334
12368SOL    HW139111   3.051   7.119   9.349
12368SOL    HW239112   2.983   7.216   9.254
12369SOL     OW39113   2.683   6.581  10.692
12369SOL    HW139114   2.735   6.570  10.612
12369SOL    HW239115   2.696   6.675  10.714
12370SOL     OW39116   2.778   6.497   9.583
12370SOL    HW139117   2.853   6.533   9.532
12370SOL    HW239118   2.815   6.417   9.623
12371SOL     OW39119   3.413   7.215   9.351
12371SOL    HW139120   3.317   7.229   9.343
12371SOL    HW239121   3.440   7.212   9.256
12372SOL     OW39122   2.238   6.866  10.802
12372SOL    HW139123   2.218   6.937  10.739
12372SOL    HW239124   2.153   6.816  10.802
12373SOL     OW39125   3.474   6.876  10.582
12373SOL    HW139126   3.519   6.855  10.666
12373SOL    HW239127   3.418   6.952  10.611
12374SOL     OW39128   2.911   6.708  10.042
12374SOL    HW139129   2.833   6.657  10.070
12374SOL    HW239130   2.973   6.636  10.022
12375SOL     OW39131   2.886   5.819  10.304
12375SOL    HW139132   2.880   5.777  10.216
12375SOL    HW239133   2.886   5.740  10.362
12376SOL     OW39134   2.488   7.072   9.807
12376SOL    HW139135   2.535   7.034   9.730
12376SOL    HW239136   2.408   7.107   9.767
12377SOL     OW39137   3.564   5.963  10.690
12377SOL    HW139138   3.628   6.036  10.699
12377SOL    HW239139   3.615   5.901  10.632
12378SOL     OW39140   2.106   6.956   9.582
12378SOL    HW139141   2.010   6.938   9.576
12378SOL    HW239142   2.116   6.979   9.677
12379SOL     OW39143   1.988   6.586  11.025
12379SOL    HW139144   1.935   6.595   0.004
12379SOL    HW239145   2.076   6.561  11.060
12380SOL     OW39146   2.532   5.783  10.783
12380SOL    HW139147   2.617   5.760  10.740
12380SOL    HW239148   2.561   5.801  10.875
12381SOL     OW39149   1.960   5.937   9.330
12381SOL    HW139150   1.867   5.935   9.307
12381SOL    HW239151   1.995   6.004   9.268
12382SOL     OW39152   3.308   6.425  10.704
12382SOL    HW139153   3.257   6.503  10.678
12382SOL    HW239154   3.399   6.455  10.694
12383SOL     OW39155   1.905   5.750   9.603
12383SOL    HW139156   1.906   5.840   9.569
12383SOL    HW239157   1.988   5.715   9.566
12384SOL     OW39158   3.061   6.952   9.421
12384SOL    HW139159   2.977   6.904   9.420
12384SOL    HW239160   3.085   6.950   9.515
12385SOL     OW39161   2.489   6.408  10.760
12385SOL    HW139162   2.551   6.482  10.744
12385SOL    HW239163   2.553   6.334  10.769
12386SOL     OW39164   3.381   7.335  10.290
12386SOL    HW139165   3.405   7.392  10.216
12386SOL    HW239166   3.459   7.341  10.347
12387SOL     OW39167   2.589   6.132  11.025
12387SOL    HW139168   2.609   6.216  11.071
12387SOL    HW239169   2.664   6.077  11.049
12388SOL     OW39170   2.232   7.309  10.870
12388SOL    HW139171   2.160   7.371  10.853
12388SOL    HW239172   2.189   7.245  10.930
12389SOL     OW39173   3.565   6.467  10.579
12389SOL    HW139174   3.549   6.375  10.550
12389SOL    HW239175   3.525   6.520  10.508
12390SOL     OW39176   3.073   5.908   9.774
12390SOL    HW139177   3.142   5.840   9.763
12390SOL    HW239178   3.107   5.959   9.851
12391SOL     OW39179   2.452   6.330   9.960
12391SOL    HW139180   2.479   6.423   9.955
12391SOL    HW239181   2.373   6.328   9.904
12392SOL     OW39182   3.626   5.911  10.943
12392SOL    HW139183   3.590   5.931  10.855
12392SOL    HW239184   3.548   5.913  11.000
12393SOL     OW39185   3.616   6.530  10.840
12393SOL    HW139186   3.612   6.627  10.848
12393SOL    HW239187   3.620   6.516  10.744
12394SOL     OW39188   2.724   6.949   9.342
12394SOL    HW139189   2.687   6.976   9.427
12394SOL    HW239190   2.745   7.033   9.298
12395SOL     OW39191   2.543   7.373  10.250
12395SOL    HW139192   2.521   7.466  10.230
12395SOL    HW239193   2.629   7.362  10.209
12396SOL     OW39194   2.740   6.540  10.172
12396SOL    HW139195   2.799   6.469  10.203
12396SOL    HW239196   2.724   6.592  10.252
12397SOL     OW39197   2.965   6.592   9.415
12397SOL    HW139198   2.926   6.642   9.340
12397SOL    HW239199   3.019   6.527   9.367
12398SOL     OW39200   3.711   7.132  10.166
12398SOL    HW139201   3.716   7.054  10.109
12398SOL    HW239202   3.683   7.094  10.251
12399SOL     OW39203   1.948   6.841   9.974
12399SOL    HW139204   1.925   6.782  10.047
12399SOL    HW239205   2.031   6.803   9.943
12400SOL     OW39206   2.544   7.009  10.929
12400SOL    HW139207   2.481   6.951  10.976
12400SOL    HW239208   2.487   7.083  10.906
12401SOL     OW39209   3.685   5.784  10.533
12401SOL    HW139210   3.689   5.689  10.547
12401SOL    HW239211   3.697   5.791  10.436
12402SOL     OW39212   2.285   6.032   9.848
12402SOL    HW139213   2.333   5.964   9.798
12402SOL    HW239214   2.244   5.983   9.921
12403SOL     OW39215   3.593   7.071  10.412
12403SOL    HW139216   3.503   7.042  10.391
12403SOL    HW239217   3.613   7.011  10.485
12404SOL     OW39218   2.206   6.134  10.591
12404SOL    HW139219   2.263   6.071  10.640
12404SOL    HW239220   2.217   6.106  10.498
12405SOL     OW39221   2.692   7.177   9.983
12405SOL    HW139222   2.681   7.234   9.906
12405SOL    HW239223   2.606   7.133   9.988
12406SOL     OW39224   3.296   5.822  10.436
12406SOL    HW139225   3.332   5.750  10.489
12406SOL    HW239226   3.239   5.869  10.500
12407SOL     OW39227   2.875   5.584  10.453
12407SOL    HW139228   2.827   5.505  10.424
12407SOL    HW239229   2.967   5.550  10.459
12408SOL     OW39230   2.643   6.930   9.622
12408SOL    HW139231   2.603   6.841   9.613
12408SOL    HW239232   2.723   6.910   9.671
12409SOL     OW39233   2.471   7.143  10.616
12409SOL    HW139234   2.477   7.229  10.663
12409SOL    HW239235   2.544   7.150  10.553
12410SOL     OW39236   3.175   5.602   9.500
12410SOL    HW139237   3.182   5.543   9.424
12410SOL    HW239238   3.085   5.580   9.533
12411SOL     OW39239   3.153   6.047   9.989
12411SOL    HW139240   3.095   6.126   9.991
12411SOL    HW239241   3.144   6.011  10.079
12412SOL     OW39242   3.463   5.788  10.188
12412SOL    HW139243   3.389   5.805  10.249
12412SOL    HW239244   3.458   5.863  10.127
12413SOL     OW39245   1.913   6.662   9.623
12413SOL    HW139246   2.005   6.650   9.596
12413SOL    HW239247   1.888   6.570   9.646
12414SOL     OW39248   2.738   7.232   9.639
12414SOL    HW139249   2.660   7.217   9.581
12414SOL    HW239250   2.714   7.312   9.690
12415SOL     OW39251   2.107   8.098   0.149
12415SOL    HW139252   2.020   8.067   0.178
12415SOL    HW239253   2.116   8.064   0.060
12416SOL     OW39254   2.071   7.752   1.011
12416SOL    HW139255   2.100   7.709   1.094
12416SOL    HW239256   1.993   7.697   0.989
12417SOL     OW39257   1.855   7.843   0.642
12417SOL    HW139258   1.772   7.867   0.687
12417SOL    HW239259   1.827   7.762   0.597
12418SOL     OW39260   2.430   8.740   1.191
12418SOL    HW139261   2.339   8.745   1.159
12418SOL    HW239262   2.441   8.827   1.233
12419SOL     OW39263   3.412   8.973   0.718
12419SOL    HW139264   3.375   8.948   0.805
12419SOL    HW239265   3.336   8.969   0.658
12420SOL     OW39266   2.976   8.146   0.714
12420SOL    HW139267   3.022   8.227   0.684
12420SOL    HW239268   2.948   8.171   0.804
12421SOL     OW39269   3.630   8.060   0.211
12421SOL    HW139270   3.571   8.088   0.139
12421SOL    HW239271   3.578   7.991   0.256
12422SOL     OW39272   2.585   8.610   1.009
12422SOL    HW139273   2.528   8.654   1.076
12422SOL    HW239274   2.631   8.688   0.973
12423SOL     OW39275   2.741   8.199   1.796
12423SOL    HW139276   2.719   8.258   1.869
12423SOL    HW239277   2.766   8.261   1.725
12424SOL     OW39278   2.556   8.602   1.798
12424SOL    HW139279   2.603   8.684   1.822
12424SOL    HW239280   2.469   8.635   1.769
12425SOL     OW39281   2.178   8.878   1.078
12425SOL    HW139282   2.100   8.842   1.032
12425SOL    HW239283   2.227   8.924   1.007
12426SOL     OW39284   3.334   8.950   1.372
12426SOL    HW139285   3.389   9.031   1.382
12426SOL    HW239286   3.273   8.958   1.447
12427SOL     OW39287   2.275   7.851   1.477
12427SOL    HW139288   2.356   7.806   1.505
12427SOL    HW239289   2.206   7.787   1.503
12428SOL     OW39290   3.480   7.903   0.739
12428SOL    HW139291   3.396   7.931   0.699
12428SOL    HW239292   3.499   7.976   0.798
12429SOL     OW39293   2.097   9.172   0.492
12429SOL    HW139294   2.135   9.256   0.522
12429SOL    HW239295   2.136   9.165   0.403
12430SOL     OW39296   2.989   8.798   1.659
12430SOL    HW139297   3.033   8.801   1.745
12430SOL    HW239298   2.948   8.710   1.663
12431SOL     OW39299   2.116   8.886   0.534
12431SOL    HW139300   2.111   8.983   0.537
12431SOL    HW239301   2.047   8.858   0.596
12432SOL     OW39302   2.136   8.528   0.902
12432SOL    HW139303   2.124   8.448   0.956
12432SOL    HW239304   2.076   8.591   0.947
12433SOL     OW39305   2.435   9.264   1.403
12433SOL    HW139306   2.367   9.224   1.462
12433SOL    HW239307   2.485   9.318   1.466
12434SOL     OW39308   2.448   8.421   0.132
12434SOL    HW139309   2.479   8.484   0.065
12434SOL    HW239310   2.485   8.461   0.213
12435SOL     OW39311   3.469   7.551   1.494
12435SOL    HW139312   3.482   7.626   1.435
12435SOL    HW239313   3.480   7.591   1.581
12436SOL     OW39314   1.987   8.107   0.557
12436SOL    HW139315   1.951   8.019   0.576
12436SOL    HW239316   1.976   8.154   0.642
12437SOL     OW39317   3.709   9.183   0.360
12437SOL    HW139318   3.768   9.160   0.434
12437SOL    HW239319   3.734   9.275   0.343
12438SOL     OW39320   1.937   9.054   0.131
12438SOL    HW139321   1.912   8.965   0.160
12438SOL    HW239322   1.908   9.109   0.205
12439SOL     OW39323   3.572   8.354   0.615
12439SOL    HW139324   3.660   8.334   0.581
12439SOL    HW239325   3.542   8.421   0.551
12440SOL     OW39326   3.496   8.570   0.444
12440SOL    HW139327   3.570   8.597   0.389
12440SOL    HW239328   3.502   8.634   0.518
12441SOL     OW39329   1.977   8.185   1.574
12441SOL    HW139330   2.056   8.224   1.613
12441SOL    HW239331   1.912   8.255   1.590
12442SOL     OW39332   2.433   8.843   0.741
12442SOL    HW139333   2.406   8.750   0.740
12442SOL    HW239334   2.432   8.864   0.645
12443SOL     OW39335   3.146   8.675   1.421
12443SOL    HW139336   3.180   8.604   1.365
12443SOL    HW239337   3.194   8.660   1.505
12444SOL     OW39338   2.696   7.448   0.465
12444SOL    HW139339   2.724   7.540   0.479
12444SOL    HW239340   2.601   7.452   0.488
12445SOL     OW39341   2.040   8.397   1.259
12445SOL    HW139342   2.094   8.430   1.186
12445SOL    HW239343   1.967   8.351   1.215
12446SOL     OW39344   3.401   8.430   0.212
12446SOL    HW139345   3.321   8.384   0.240
12446SOL    HW239346   3.432   8.470   0.294
12447SOL     OW39347   3.026   9.256   1.614
12447SOL    HW139348   3.048   9.325   1.549
12447SOL    HW239349   3.050   9.175   1.566
12448SOL     OW39350   2.189   7.699   1.795
12448SOL    HW139351   2.247   7.752   1.851
12448SOL    HW239352   2.101   7.723   1.830
12449SOL     OW39353   3.328   8.881   0.967
12449SOL    HW139354   3.263   8.899   1.037
12449SOL    HW239355   3.302   8.792   0.936
12450SOL     OW39356   3.518   9.196   0.607
12450SOL    HW139357   3.509   9.163   0.517
12450SOL    HW239358   3.491   9.118   0.658
12451SOL     OW39359   2.444   8.163   0.271
12451SOL    HW139360   2.459   8.239   0.214
12451SOL    HW239361   2.375   8.194   0.332
12452SOL     OW39362   3.121   7.790   0.921
12452SOL    HW139363   3.034   7.750   0.943
12452SOL    HW239364   3.182   7.741   0.980
12453SOL     OW39365   3.432   9.110   0.315
12453SOL    HW139366   3.527   9.129   0.309
12453SOL    HW239367   3.410   9.092   0.222
12454SOL     OW39368   2.655   8.078   1.442
12454SOL    HW139369   2.648   8.042   1.533
12454SOL    HW239370   2.603   8.013   1.392
12455SOL     OW39371   3.252   7.931   1.672
12455SOL    HW139372   3.258   7.988   1.752
12455SOL    HW239373   3.314   7.859   1.693
12456SOL     OW39374   2.825   8.335   1.576
12456SOL    HW139375   2.869   8.253   1.542
12456SOL    HW239376   2.784   8.370   1.495
12457SOL     OW39377   2.849   7.840   1.231
12457SOL    HW139378   2.778   7.835   1.296
12457SOL    HW239379   2.831   7.766   1.171
12458SOL     OW39380   2.902   8.130   0.412
12458SOL    HW139381   2.914   8.148   0.507
12458SOL    HW239382   2.816   8.084   0.411
12459SOL     OW39383   1.973   8.261   0.774
12459SOL    HW139384   2.034   8.263   0.850
12459SOL    HW239385   1.908   8.329   0.797
12460SOL     OW39386   1.967   9.288   1.566
12460SOL    HW139387   1.977   9.269   1.662
12460SOL    HW239388   1.872   9.281   1.554
12461SOL     OW39389   2.744   7.820   0.213
12461SOL    HW139390   2.790   7.869   0.142
12461SOL    HW239391   2.757   7.727   0.186
12462SOL     OW39392   3.575   8.033   1.840
12462SOL    HW139393   3.542   8.113   1.792
12462SOL    HW239394   3.607   7.980   1.765
12463SOL     OW39395   3.214   8.599   0.562
12463SOL    HW139396   3.297   8.584   0.515
12463SOL    HW239397   3.172   8.667   0.506
12464SOL     OW39398   2.406   7.636   0.891
12464SOL    HW139399   2.418   7.663   0.984
12464SOL    HW239400   2.401   7.719   0.843
12465SOL     OW39401   2.856   8.879   0.480
12465SOL    HW139402   2.811   8.950   0.431
12465SOL    HW239403   2.870   8.920   0.566
12466SOL     OW39404   2.204   9.256   0.858
12466SOL    HW139405   2.241   9.167   0.872
12466SOL    HW239406   2.284   9.310   0.865
12467SOL     OW39407   3.672   8.499   0.888
12467SOL    HW139408   3.616   8.481   0.811
12467SOL    HW239409   3.611   8.489   0.962
12468SOL     OW39410   3.077   9.016   1.486
12468SOL    HW139411   3.061   8.950   1.556
12468SOL    HW239412   3.049   8.967   1.408
12469SOL     OW39413   2.179   8.410   0.270
12469SOL    HW139414   2.247   8.416   0.202
12469SOL    HW239415   2.134   8.328   0.247
12470SOL     OW39416   3.338   8.211   0.717
12470SOL    HW139417   3.339   8.182   0.809
12470SOL    HW239418   3.423   8.256   0.707
12471SOL     OW39419   2.324   8.723   1.718
12471SOL    HW139420   2.280   8.727   1.631
12471SOL    HW239421   2.246   8.732   1.777
12472SOL     OW39422   2.980   9.195   0.230
12472SOL    HW139423   2.916   9.142   0.281
12472SOL    HW239424   3.004   9.137   0.156
12473SOL     OW39425   2.021   7.735   1.508
12473SOL    HW139426   1.943   7.767   1.556
12473SOL    HW239427   2.015   7.640   1.525
12474SOL     OW39428   3.491   8.792   0.089
12474SOL    HW139429   3.446   8.875   0.067
12474SOL    HW239430   3.432   8.725   0.047
12475SOL     OW39431   2.326   9.194   0.302
12475SOL    HW139432   2.365   9.235   0.381
12475SOL    HW239433   2.400   9.200   0.239
12476SOL     OW39434   3.263   7.564   0.444
12476SOL    HW139435   3.266   7.512   0.362
12476SOL    HW239436   3.357   7.577   0.465
12477SOL     OW39437   2.108   9.243   1.227
12477SOL    HW139438   2.153   9.166   1.265
12477SOL    HW239439   2.082   9.211   1.140
12478SOL     OW39440   2.821   9.129   0.903
12478SOL    HW139441   2.910   9.093   0.896
12478SOL    HW239442   2.774   9.083   0.831
12479SOL     OW39443   2.261   8.122   0.499
12479SOL    HW139444   2.273   8.024   0.500
12479SOL    HW239445   2.166   8.129   0.517
12480SOL     OW39446   3.398   7.710   1.721
12480SOL    HW139447   3.398   7.706   1.820
12480SOL    HW239448   3.333   7.642   1.700
12481SOL     OW39449   2.487   7.537   0.109
12481SOL    HW139450   2.582   7.535   0.127
12481SOL    HW239451   2.482   7.534   0.012
12482SOL     OW39452   2.633   7.713   1.728
12482SOL    HW139453   2.712   7.655   1.738
12482SOL    HW239454   2.582   7.691   1.807
12483SOL     OW39455   2.735   8.996   1.196
12483SOL    HW139456   2.734   8.975   1.101
12483SOL    HW239457   2.797   8.930   1.231
12484SOL     OW39458   3.197   8.042   1.429
12484SOL    HW139459   3.236   8.009   1.513
12484SOL    HW239460   3.249   8.122   1.411
12485SOL     OW39461   2.668   8.860   0.932
12485SOL    HW139462   2.758   8.855   0.895
12485SOL    HW239463   2.615   8.882   0.855
12486SOL     OW39464   2.795   7.952   0.912
12486SOL    HW139465   2.779   7.936   0.816
12486SOL    HW239466   2.835   7.868   0.939
12487SOL     OW39467   2.436   7.495   0.500
12487SOL    HW139468   2.357   7.503   0.556
12487SOL    HW239469   2.421   7.570   0.439
12488SOL     OW39470   3.294   8.617   0.013
12488SOL    HW139471   3.325   8.554   0.081
12488SOL    HW239472   3.216   8.657   0.055
12489SOL     OW39473   2.137   7.516   0.220
12489SOL    HW139474   2.169   7.563   0.141
12489SOL    HW239475   2.210   7.453   0.235
12490SOL     OW39476   2.795   7.701   0.479
12490SOL    HW139477   2.770   7.743   0.395
12490SOL    HW239478   2.892   7.715   0.479
12491SOL     OW39479   2.943   8.120   1.473
12491SOL    HW139480   2.897   8.035   1.479
12491SOL    HW239481   3.036   8.094   1.468
12492SOL     OW39482   3.101   9.032   0.796
12492SOL    HW139483   3.109   9.099   0.725
12492SOL    HW239484   3.176   9.053   0.852
12493SOL     OW39485   2.343   8.565   0.731
12493SOL    HW139486   2.268   8.560   0.795
12493SOL    HW239487   2.293   8.562   0.646
12494SOL     OW39488   3.122   9.257   0.629
12494SOL    HW139489   3.169   9.316   0.567
12494SOL    HW239490   3.090   9.321   0.694
12495SOL     OW39491   2.889   7.971   0.034
12495SOL    HW139492   2.859   8.063   0.027
12495SOL    HW239493   2.980   7.982   0.063
12496SOL     OW39494   1.893   8.006   1.388
12496SOL    HW139495   1.974   7.964   1.419
12496SOL    HW239496   1.889   8.085   1.446
12497SOL     OW39497   2.430   7.669   1.166
12497SOL    HW139498   2.478   7.593   1.203
12497SOL    HW239499   2.340   7.651   1.198
12498SOL     OW39500   2.741   7.901   0.654
12498SOL    HW139501   2.702   7.947   0.578
12498SOL    HW239502   2.757   7.813   0.613
12499SOL     OW39503   2.869   7.531   0.765
12499SOL    HW139504   2.844   7.513   0.674
12499SOL    HW239505   2.851   7.446   0.809
12500SOL     OW39506   3.285   8.635   0.881
12500SOL    HW139507   3.215   8.569   0.889
12500SOL    HW239508   3.304   8.630   0.786
12501SOL     OW39509   3.310   8.029   0.992
12501SOL    HW139510   3.265   7.944   0.995
12501SOL    HW239511   3.372   8.023   1.067
12502SOL     OW39512   3.737   8.280   0.369
12502SOL    HW139513   3.774   8.218   0.434
12502SOL    HW239514   3.697   8.218   0.306
12503SOL     OW39515   2.353   8.888   0.142
12503SOL    HW139516   2.277   8.862   0.198
12503SOL    HW239517   2.348   8.823   0.069
12504SOL     OW39518   3.529   8.735   0.656
12504SOL    HW139519   3.626   8.739   0.664
12504SOL    HW239520   3.500   8.824   0.684
12505SOL     OW39521   3.255   8.048   0.092
12505SOL    HW139522   3.211   8.010   0.171
12505SOL    HW239523   3.307   7.973   0.061
12506SOL     OW39524   2.379   7.672   0.316
12506SOL    HW139525   2.409   7.618   0.240
12506SOL    HW239526   2.358   7.757   0.273
12507SOL     OW39527   3.593   8.680   1.573
12507SOL    HW139528   3.680   8.636   1.586
12507SOL    HW239529   3.617   8.772   1.588
12508SOL     OW39530   2.930   8.801   1.322
12508SOL    HW139531   2.851   8.772   1.371
12508SOL    HW239532   3.001   8.753   1.372
12509SOL     OW39533   3.470   9.047   1.640
12509SOL    HW139534   3.474   9.092   1.554
12509SOL    HW239535   3.554   8.997   1.641
12510SOL     OW39536   2.977   8.665   1.086
12510SOL    HW139537   2.937   8.708   1.162
12510SOL    HW239538   2.945   8.718   1.011
12511SOL     OW39539   3.463   8.542   1.081
12511SOL    HW139540   3.473   8.610   1.151
12511SOL    HW239541   3.409   8.590   1.016
12512SOL     OW39542   2.782   7.550   1.402
12512SOL    HW139543   2.817   7.521   1.315
12512SOL    HW239544   2.862   7.584   1.446
12513SOL     OW39545   2.863   8.564   1.736
12513SOL    HW139546   2.773   8.595   1.755
12513SOL    HW239547   2.849   8.488   1.678
12514SOL     OW39548   2.581   8.516   0.355
12514SOL    HW139549   2.589   8.525   0.451
12514SOL    HW239550   2.662   8.465   0.330
12515SOL     OW39551   2.282   8.214   1.261
12515SOL    HW139552   2.357   8.239   1.319
12515SOL    HW239553   2.210   8.266   1.299
12516SOL     OW39554   3.151   7.827   1.266
12516SOL    HW139555   3.167   7.906   1.321
12516SOL    HW239556   3.064   7.845   1.229
12517SOL     OW39557   1.933   9.025   1.352
12517SOL    HW139558   1.934   9.117   1.323
12517SOL    HW239559   2.028   9.002   1.353
12518SOL     OW39560   2.218   8.544   0.501
12518SOL    HW139561   2.224   8.626   0.450
12518SOL    HW239562   2.199   8.480   0.430
12519SOL     OW39563   2.408   7.993   0.871
12519SOL    HW139564   2.436   8.047   0.795
12519SOL    HW239565   2.482   8.003   0.933
12520SOL     OW39566   3.093   8.799   0.390
12520SOL    HW139567   3.140   8.877   0.424
12520SOL    HW239568   3.001   8.817   0.419
12521SOL     OW39569   3.151   8.917   1.171
12521SOL    HW139570   3.215   8.911   1.244
12521SOL    HW239571   3.091   8.845   1.191
12522SOL     OW39572   3.441   8.073   0.460
12522SOL    HW139573   3.398   8.114   0.536
12522SOL    HW239574   3.466   8.151   0.408
12523SOL     OW39575   2.197   8.967   1.321
12523SOL    HW139576   2.183   8.925   1.233
12523SOL    HW239577   2.293   8.984   1.316
12524SOL     OW39578   2.306   8.180   1.635
12524SOL    HW139579   2.366   8.231   1.578
12524SOL    HW239580   2.351   8.095   1.645
12525SOL     OW39581   3.490   8.227   1.687
12525SOL    HW139582   3.401   8.267   1.687
12525SOL    HW239583   3.532   8.272   1.610
12526SOL     OW39584   2.854   7.563   1.750
12526SOL    HW139585   2.918   7.634   1.732
12526SOL    HW239586   2.902   7.486   1.714
12527SOL     OW39587   2.362   7.481   1.739
12527SOL    HW139588   2.321   7.421   1.673
12527SOL    HW239589   2.294   7.550   1.749
12528SOL     OW39590   2.431   8.370   1.001
12528SOL    HW139591   2.478   8.452   1.026
12528SOL    HW239592   2.394   8.341   1.085
12529SOL     OW39593   3.218   8.313   1.010
12529SOL    HW139594   3.134   8.279   0.977
12529SOL    HW239595   3.266   8.231   1.028
12530SOL     OW39596   3.095   7.957   0.289
12530SOL    HW139597   3.098   7.884   0.354
12530SOL    HW239598   3.030   8.016   0.331
12531SOL     OW39599   2.163   7.659   1.252
12531SOL    HW139600   2.107   7.673   1.330
12531SOL    HW239601   2.151   7.562   1.239
12532SOL     OW39602   1.911   8.756   1.284
12532SOL    HW139603   1.924   8.696   1.359
12532SOL    HW239604   1.901   8.843   1.326
12533SOL     OW39605   2.591   8.082   1.059
12533SOL    HW139606   2.673   8.044   1.021
12533SOL    HW239607   2.597   8.176   1.039
12534SOL     OW39608   3.635   8.404   1.857
12534SOL    HW139609   3.588   8.353   1.789
12534SOL    HW239610   3.570   8.401   1.930
12535SOL     OW39611   2.196   7.532   0.607
12535SOL    HW139612   2.162   7.617   0.637
12535SOL    HW239613   2.179   7.475   0.684
12536SOL     OW39614   3.475   7.834   0.336
12536SOL    HW139615   3.495   7.762   0.398
12536SOL    HW239616   3.454   7.909   0.395
12537SOL     OW39617   2.908   8.199   0.979
12537SOL    HW139618   2.895   8.207   1.075
12537SOL    HW239619   2.892   8.104   0.964
12538SOL     OW39620   2.841   9.015   1.706
12538SOL    HW139621   2.828   9.068   1.625
12538SOL    HW239622   2.877   8.933   1.670
12539SOL     OW39623   3.715   8.939   1.603
12539SOL    HW139624   3.739   8.967   1.513
12539SOL    HW239625   3.795   8.963   1.653
12540SOL     OW39626   2.214   8.361   1.801
12540SOL    HW139627   2.292   8.394   1.847
12540SOL    HW239628   2.248   8.284   1.752
12541SOL     OW39629   3.378   7.719   0.101
12541SOL    HW139630   3.319   7.656   0.143
12541SOL    HW239631   3.427   7.754   0.177
12542SOL     OW39632   3.146   8.288   0.038
12542SOL    HW139633   3.195   8.204   0.054
12542SOL    HW239634   3.188   8.318  11.057
12543SOL     OW39635   2.919   8.819   0.848
12543SOL    HW139636   2.929   8.740   0.791
12543SOL    HW239637   2.994   8.875   0.821
12544SOL     OW39638   2.142   8.261   0.997
12544SOL    HW139639   2.232   8.267   0.962
12544SOL    HW239640   2.144   8.174   1.041
12545SOL     OW39641   2.208   7.980   1.042
12545SOL    HW139642   2.162   7.897   1.015
12545SOL    HW239643   2.273   7.990   0.968
12546SOL     OW39644   3.009   7.823   1.691
12546SOL    HW139645   2.969   7.872   1.765
12546SOL    HW239646   3.097   7.865   1.687
12547SOL     OW39647   3.028   7.644   1.483
12547SOL    HW139648   3.033   7.710   1.554
12547SOL    HW239649   3.072   7.691   1.410
12548SOL     OW39650   1.862   8.794   0.223
12548SOL    HW139651   1.777   8.802   0.175
12548SOL    HW239652   1.872   8.697   0.228
12549SOL     OW39653   1.950   9.237   0.945
12549SOL    HW139654   1.923   9.166   0.884
12549SOL    HW239655   2.042   9.253   0.916
12550SOL     OW39656   2.345   9.023   0.920
12550SOL    HW139657   2.423   9.079   0.931
12550SOL    HW239658   2.376   8.956   0.856
12551SOL     OW39659   2.833   8.210   1.240
12551SOL    HW139660   2.890   8.182   1.314
12551SOL    HW239661   2.746   8.187   1.276
12552SOL     OW39662   1.889   7.993   1.104
12552SOL    HW139663   1.962   7.948   1.060
12552SOL    HW239664   1.915   7.995   1.197
12553SOL     OW39665   2.080   7.970   1.720
12553SOL    HW139666   2.121   7.907   1.659
12553SOL    HW239667   2.037   8.034   1.660
12554SOL     OW39668   3.254   8.363   1.650
12554SOL    HW139669   3.279   8.458   1.649
12554SOL    HW239670   3.249   8.344   1.554
12555SOL     OW39671   2.651   8.014   0.399
12555SOL    HW139672   2.678   7.944   0.337
12555SOL    HW239673   2.583   8.061   0.348
12556SOL     OW39674   3.495   8.067   1.202
12556SOL    HW139675   3.477   8.003   1.272
12556SOL    HW239676   3.578   8.032   1.166
12557SOL     OW39677   2.113   8.993   1.715
12557SOL    HW139678   2.096   9.056   1.787
12557SOL    HW239679   2.119   8.908   1.764
12558SOL     OW39680   2.506   7.931   1.264
12558SOL    HW139681   2.515   7.841   1.227
12558SOL    HW239682   2.541   7.987   1.191
12559SOL     OW39683   2.775   9.150   1.485
12559SOL    HW139684   2.784   9.121   1.393
12559SOL    HW239685   2.798   9.245   1.480
12560SOL     OW39686   2.324   7.920   0.201
12560SOL    HW139687   2.381   7.998   0.210
12560SOL    HW239688   2.237   7.960   0.207
12561SOL     OW39689   1.971   8.565   1.471
12561SOL    HW139690   1.979   8.515   1.556
12561SOL    HW239691   1.995   8.497   1.405
12562SOL     OW39692   3.178   8.488   1.225
12562SOL    HW139693   3.202   8.434   1.147
12562SOL    HW239694   3.105   8.541   1.190
12563SOL     OW39695   3.172   8.311   0.310
12563SOL    HW139696   3.093   8.270   0.345
12563SOL    HW239697   3.159   8.301   0.214
12564SOL     OW39698   3.621   9.195   1.132
12564SOL    HW139699   3.692   9.218   1.069
12564SOL    HW239700   3.610   9.099   1.113
12565SOL     OW39701   3.104   9.180   1.114
12565SOL    HW139702   3.191   9.201   1.077
12565SOL    HW239703   3.112   9.085   1.134
12566SOL     OW39704   1.969   8.692   1.034
12566SOL    HW139705   1.937   8.716   1.124
12566SOL    HW239706   1.889   8.655   0.993
12567SOL     OW39707   2.556   9.085   1.745
12567SOL    HW139708   2.520   9.172   1.725
12567SOL    HW239709   2.648   9.092   1.714
12568SOL     OW39710   2.768   7.556   0.146
12568SOL    HW139711   2.824   7.519   0.076
12568SOL    HW239712   2.800   7.502   0.221
12569SOL     OW39713   3.538   7.588   0.499
12569SOL    HW139714   3.618   7.580   0.445
12569SOL    HW239715   3.539   7.503   0.547
12570SOL     OW39716   3.229   9.013   0.494
12570SOL    HW139717   3.292   9.028   0.420
12570SOL    HW239718   3.192   9.102   0.505
12571SOL     OW39719   2.002   9.243   1.833
12571SOL    HW139720   1.954   9.173   1.881
12571SOL    HW239721   2.041   9.293   1.907
12572SOL     OW39722   3.109   8.364   0.639
12572SOL    HW139723   3.191   8.317   0.661
12572SOL    HW239724   3.145   8.446   0.600
12573SOL     OW39725   2.680   8.721   1.432
12573SOL    HW139726   2.648   8.769   1.511
12573SOL    HW239727   2.606   8.734   1.371
12574SOL     OW39728   2.552   9.068   0.175
12574SOL    HW139729   2.562   9.092   0.082
12574SOL    HW239730   2.480   9.001   0.172
12575SOL     OW39731   3.488   9.169   1.393
12575SOL    HW139732   3.534   9.184   1.308
12575SOL    HW239733   3.471   9.260   1.424
12576SOL     OW39734   3.699   7.620   0.979
12576SOL    HW139735   3.716   7.533   0.939
12576SOL    HW239736   3.615   7.646   0.935
12577SOL     OW39737   2.113   7.770   0.703
12577SOL    HW139738   2.022   7.797   0.677
12577SOL    HW239739   2.112   7.784   0.799
12578SOL     OW39740   3.073   9.042   0.036
12578SOL    HW139741   3.079   8.946   0.052
12578SOL    HW239742   3.007   9.046  11.065
12579SOL     OW39743   2.690   8.453   1.370
12579SOL    HW139744   2.732   8.461   1.283
12579SOL    HW239745   2.688   8.545   1.402
12580SOL     OW39746   2.790   8.375   0.297
12580SOL    HW139747   2.838   8.404   0.216
12580SOL    HW239748   2.825   8.286   0.310
12581SOL     OW39749   3.369   9.046   0.042
12581SOL    HW139750   3.274   9.066   0.051
12581SOL    HW239751   3.392   9.087  11.060
12582SOL     OW39752   2.200   8.719   1.485
12582SOL    HW139753   2.182   8.796   1.430
12582SOL    HW239754   2.117   8.668   1.482
12583SOL     OW39755   3.468   8.755   1.264
12583SOL    HW139756   3.509   8.728   1.347
12583SOL    HW239757   3.408   8.826   1.295
12584SOL     OW39758   2.911   8.561   0.732
12584SOL    HW139759   2.839   8.500   0.752
12584SOL    HW239760   2.974   8.502   0.686
12585SOL     OW39761   2.885   7.673   0.991
12585SOL    HW139762   2.875   7.632   0.903
12585SOL    HW239763   2.892   7.594   1.047
12586SOL     OW39764   2.465   8.929   0.486
12586SOL    HW139765   2.526   8.891   0.420
12586SOL    HW239766   2.398   8.971   0.430
12587SOL     OW39767   3.567   7.820   1.381
12587SOL    HW139768   3.629   7.896   1.380
12587SOL    HW239769   3.615   7.756   1.324
12588SOL     OW39770   2.122   8.807   0.281
12588SOL    HW139771   2.026   8.807   0.257
12588SOL    HW239772   2.119   8.845   0.371
12589SOL     OW39773   1.982   8.447   1.705
12589SOL    HW139774   1.911   8.431   1.770
12589SOL    HW239775   2.063   8.423   1.755
12590SOL     OW39776   2.534   7.636   1.486
12590SOL    HW139777   2.620   7.602   1.455
12590SOL    HW239778   2.557   7.669   1.575
12591SOL     OW39779   1.979   7.826   0.004
12591SOL    HW139780   1.905   7.769  11.080
12591SOL    HW239781   1.951   7.911  11.071
12592SOL     OW39782   3.314   8.312   1.390
12592SOL    HW139783   3.272   8.376   1.329
12592SOL    HW239784   3.407   8.333   1.377
12593SOL     OW39785   1.907   7.607   0.323
12593SOL    HW139786   1.907   7.691   0.276
12593SOL    HW239787   1.998   7.576   0.305
12594SOL     OW39788   3.063   8.765   0.122
12594SOL    HW139789   2.966   8.771   0.115
12594SOL    HW239790   3.077   8.774   0.218
12595SOL     OW39791   2.485   8.281   1.427
12595SOL    HW139792   2.543   8.359   1.424
12595SOL    HW239793   2.552   8.210   1.437
12596SOL     OW39794   3.368   9.211   0.956
12596SOL    HW139795   3.406   9.260   0.882
12596SOL    HW239796   3.446   9.198   1.013
12597SOL     OW39797   2.589   7.986   1.683
12597SOL    HW139798   2.631   8.049   1.744
12597SOL    HW239799   2.611   7.899   1.721
12598SOL     OW39800   3.322   8.626   1.628
12598SOL    HW139801   3.315   8.630   1.726
12598SOL    HW239802   3.416   8.648   1.614
12599SOL     OW39803   2.231   9.182   1.563
12599SOL    HW139804   2.144   9.225   1.550
12599SOL    HW239805   2.204   9.098   1.604
12600SOL     OW39806   3.565   8.332   1.237
12600SOL    HW139807   3.532   8.245   1.210
12600SOL    HW239808   3.526   8.393   1.172
12601SOL     OW39809   3.072   7.767   0.483
12601SOL    HW139810   3.138   7.697   0.466
12601SOL    HW239811   3.111   7.815   0.558
12602SOL     OW39812   2.467   8.196   0.650
12602SOL    HW139813   2.532   8.149   0.596
12602SOL    HW239814   2.384   8.177   0.600
12603SOL     OW39815   3.629   7.827   1.640
12603SOL    HW139816   3.596   7.832   1.548
12603SOL    HW239817   3.555   7.779   1.682
12604SOL     OW39818   3.600   8.386   1.501
12604SOL    HW139819   3.609   8.482   1.493
12604SOL    HW239820   3.614   8.357   1.409
12605SOL     OW39821   2.766   8.808   0.061
12605SOL    HW139822   2.677   8.819   0.096
12605SOL    HW239823   2.776   8.886   0.004
12606SOL     OW39824   2.498   9.274   0.929
12606SOL    HW139825   2.495   9.370   0.911
12606SOL    HW239826   2.593   9.255   0.928
12607SOL     OW39827   2.726   8.385   0.851
12607SOL    HW139828   2.786   8.319   0.889
12607SOL    HW239829   2.735   8.458   0.913
12608SOL     OW39830   2.906   8.435   0.067
12608SOL    HW139831   2.921   8.514   0.014
12608SOL    HW239832   2.990   8.388   0.058
12609SOL     OW39833   3.721   9.001   0.825
12609SOL    HW139834   3.627   8.986   0.810
12609SOL    HW239835   3.741   8.937   0.895
12610SOL     OW39836   2.102   8.768   1.857
12610SOL    HW139837   2.027   8.714   1.832
12610SOL    HW239838   2.085   8.782   1.952
12611SOL     OW39839   1.945   8.710   0.655
12611SOL    HW139840   1.953   8.647   0.728
12611SOL    HW239841   2.002   8.671   0.587
12612SOL     OW39842   2.538   8.853   1.613
12612SOL    HW139843   2.463   8.800   1.646
12612SOL    HW239844   2.528   8.936   1.663
12613SOL     OW39845   3.677   7.617   1.242
12613SOL    HW139846   3.698   7.523   1.252
12613SOL    HW239847   3.683   7.626   1.144
12614SOL     OW39848   2.309   7.854   0.529
12614SOL    HW139849   2.333   7.782   0.468
12614SOL    HW239850   2.247   7.812   0.590
12615SOL     OW39851   3.574   8.939   1.076
12615SOL    HW139852   3.488   8.913   1.039
12615SOL    HW239853   3.577   8.881   1.154
12616SOL     OW39854   2.681   9.030   0.688
12616SOL    HW139855   2.689   9.098   0.619
12616SOL    HW239856   2.590   8.998   0.673
12617SOL     OW39857   3.301   7.694   1.086
12617SOL    HW139858   3.345   7.621   1.131
12617SOL    HW239859   3.251   7.736   1.159
12618SOL     OW39860   2.883   7.448   1.151
12618SOL    HW139861   2.829   7.371   1.130
12618SOL    HW239862   2.973   7.410   1.147
12619SOL     OW39863   2.624   8.787   0.326
12619SOL    HW139864   2.611   8.692   0.321
12619SOL    HW239865   2.719   8.796   0.340
12620SOL     OW39866   2.459   9.009   1.276
12620SOL    HW139867   2.462   9.094   1.322
12620SOL    HW239868   2.552   9.000   1.250
12621SOL     OW39869   3.192   7.475   0.168
12621SOL    HW139870   3.210   7.435   0.082
12621SOL    HW239871   3.101   7.442   0.186
12622SOL     OW39872   3.168   7.931   0.699
12622SOL    HW139873   3.104   8.004   0.700
12622SOL    HW239874   3.150   7.888   0.785
12623SOL     OW39875   3.466   7.656   0.855
12623SOL    HW139876   3.389   7.665   0.913
12623SOL    HW239877   3.459   7.735   0.798
12624SOL     OW39878   1.918   8.541   0.267
12624SOL    HW139879   2.014   8.532   0.275
12624SOL    HW239880   1.889   8.450   0.286
12625SOL     OW39881   2.756   9.093   0.358
12625SOL    HW139882   2.680   9.085   0.298
12625SOL    HW239883   2.737   9.176   0.406
12626SOL     OW39884   2.101   8.090   2.013
12626SOL    HW139885   2.007   8.077   2.032
12626SOL    HW239886   2.109   8.065   1.919
12627SOL     OW39887   1.861   7.854   2.488
12627SOL    HW139888   1.781   7.878   2.538
12627SOL    HW239889   1.835   7.768   2.451
12628SOL     OW39890   2.433   8.740   3.062
12628SOL    HW139891   2.344   8.735   3.024
12628SOL    HW239892   2.440   8.834   3.086
12629SOL     OW39893   3.397   8.987   2.579
12629SOL    HW139894   3.367   8.948   2.663
12629SOL    HW239895   3.325   8.968   2.516
12630SOL     OW39896   2.985   8.129   2.566
12630SOL    HW139897   3.020   8.217   2.542
12630SOL    HW239898   2.953   8.144   2.656
12631SOL     OW39899   3.634   8.061   2.100
12631SOL    HW139900   3.610   8.051   2.005
12631SOL    HW239901   3.584   7.989   2.140
12632SOL     OW39902   2.617   8.619   2.899
12632SOL    HW139903   2.548   8.661   2.955
12632SOL    HW239904   2.647   8.695   2.847
12633SOL     OW39905   2.740   8.198   3.656
12633SOL    HW139906   2.721   8.259   3.728
12633SOL    HW239907   2.766   8.258   3.583
12634SOL     OW39908   2.547   8.464   2.516
12634SOL    HW139909   2.612   8.446   2.587
12634SOL    HW239910   2.483   8.522   2.562
12635SOL     OW39911   2.557   8.598   3.665
12635SOL    HW139912   2.601   8.682   3.689
12635SOL    HW239913   2.470   8.627   3.634
12636SOL     OW39914   2.185   8.875   2.928
12636SOL    HW139915   2.113   8.831   2.879
12636SOL    HW239916   2.232   8.927   2.861
12637SOL     OW39917   3.333   8.952   3.236
12637SOL    HW139918   3.386   9.034   3.247
12637SOL    HW239919   3.271   8.959   3.310
12638SOL     OW39920   2.298   7.852   3.377
12638SOL    HW139921   2.378   7.796   3.379
12638SOL    HW239922   2.226   7.788   3.370
12639SOL     OW39923   3.487   7.898   2.604
12639SOL    HW139924   3.416   7.928   2.545
12639SOL    HW239925   3.485   7.965   2.674
12640SOL     OW39926   2.086   9.165   2.339
12640SOL    HW139927   2.115   9.242   2.392
12640SOL    HW239928   2.145   9.170   2.262
12641SOL     OW39929   2.987   8.798   3.518
12641SOL    HW139930   3.034   8.803   3.602
12641SOL    HW239931   2.947   8.709   3.526
12642SOL     OW39932   2.117   8.893   2.391
12642SOL    HW139933   2.110   8.990   2.392
12642SOL    HW239934   2.046   8.867   2.451
12643SOL     OW39935   2.135   8.528   2.762
12643SOL    HW139936   2.134   8.460   2.831
12643SOL    HW239937   2.079   8.597   2.804
12644SOL     OW39938   2.457   9.244   3.264
12644SOL    HW139939   2.388   9.212   3.325
12644SOL    HW239940   2.480   9.331   3.304
12645SOL     OW39941   2.439   8.446   1.978
12645SOL    HW139942   2.489   8.495   1.910
12645SOL    HW239943   2.480   8.480   2.059
12646SOL     OW39944   3.474   7.564   3.364
12646SOL    HW139945   3.472   7.643   3.308
12646SOL    HW239946   3.484   7.603   3.452
12647SOL     OW39947   1.991   8.097   2.423
12647SOL    HW139948   1.947   8.011   2.436
12647SOL    HW239949   1.976   8.142   2.508
12648SOL     OW39950   3.708   9.183   2.216
12648SOL    HW139951   3.786   9.164   2.272
12648SOL    HW239952   3.725   9.275   2.190
12649SOL     OW39953   1.889   9.040   1.970
12649SOL    HW139954   1.873   8.948   1.999
12649SOL    HW239955   1.871   9.090   2.052
12650SOL     OW39956   3.549   8.344   2.512
12650SOL    HW139957   3.633   8.315   2.475
12650SOL    HW239958   3.517   8.404   2.443
12651SOL     OW39959   3.509   8.562   2.308
12651SOL    HW139960   3.599   8.561   2.272
12651SOL    HW239961   3.517   8.632   2.376
12652SOL     OW39962   1.987   8.192   3.439
12652SOL    HW139963   2.076   8.223   3.464
12652SOL    HW239964   1.933   8.268   3.463
12653SOL     OW39965   2.466   8.860   2.621
12653SOL    HW139966   2.428   8.771   2.635
12653SOL    HW239967   2.452   8.870   2.525
12654SOL     OW39968   3.155   8.680   3.280
12654SOL    HW139969   3.178   8.605   3.223
12654SOL    HW239970   3.211   8.664   3.359
12655SOL     OW39971   2.693   7.435   2.359
12655SOL    HW139972   2.723   7.528   2.354
12655SOL    HW239973   2.597   7.446   2.365
12656SOL     OW39974   2.044   8.414   3.117
12656SOL    HW139975   2.131   8.372   3.115
12656SOL    HW239976   1.984   8.347   3.080
12657SOL     OW39977   3.414   8.398   2.039
12657SOL    HW139978   3.330   8.359   2.070
12657SOL    HW239979   3.450   8.433   2.121
12658SOL     OW39980   3.041   9.247   3.485
12658SOL    HW139981   3.055   9.315   3.418
12658SOL    HW239982   3.062   9.166   3.436
12659SOL     OW39983   2.199   7.674   3.636
12659SOL    HW139984   2.249   7.747   3.675
12659SOL    HW239985   2.109   7.693   3.668
12660SOL     OW39986   3.330   8.878   2.822
12660SOL    HW139987   3.268   8.896   2.895
12660SOL    HW239988   3.298   8.791   2.791
12661SOL     OW39989   3.519   9.191   2.470
12661SOL    HW139990   3.512   9.157   2.380
12661SOL    HW239991   3.483   9.117   2.522
12662SOL     OW39992   2.448   8.151   2.130
12662SOL    HW139993   2.452   8.238   2.088
12662SOL    HW239994   2.383   8.164   2.201
12663SOL     OW39995   3.135   7.777   2.771
12663SOL    HW139996   3.046   7.747   2.796
12663SOL    HW239997   3.190   7.740   2.843
12664SOL     OW39998   3.435   9.095   2.171
12664SOL    HW139999   3.530   9.111   2.175
12664SOL    HW240000   3.422   9.090   2.075
12665SOL     OW40001   2.656   8.085   3.322
12665SOL    HW140002   2.643   8.049   3.412
12665SOL    HW240003   2.618   8.015   3.267
12666SOL     OW40004   3.257   7.928   3.534
12666SOL    HW140005   3.268   7.985   3.613
12666SOL    HW240006   3.317   7.854   3.554
12667SOL     OW40007   2.827   8.337   3.441
12667SOL    HW140008   2.863   8.254   3.403
12667SOL    HW240009   2.780   8.375   3.363
12668SOL     OW40010   2.845   7.852   3.096
12668SOL    HW140011   2.752   7.871   3.114
12668SOL    HW240012   2.842   7.794   3.019
12669SOL     OW40013   2.904   8.128   2.275
12669SOL    HW140014   2.917   8.149   2.369
12669SOL    HW240015   2.819   8.080   2.277
12670SOL     OW40016   1.965   8.243   2.653
12670SOL    HW140017   2.038   8.259   2.715
12670SOL    HW240018   1.908   8.320   2.668
12671SOL     OW40019   1.969   9.284   3.429
12671SOL    HW140020   1.980   9.257   3.523
12671SOL    HW240021   1.873   9.281   3.418
12672SOL     OW40022   2.754   7.833   2.065
12672SOL    HW140023   2.799   7.887   1.999
12672SOL    HW240024   2.777   7.744   2.036
12673SOL     OW40025   3.579   8.047   3.704
12673SOL    HW140026   3.547   8.121   3.648
12673SOL    HW240027   3.615   7.987   3.637
12674SOL     OW40028   3.223   8.595   2.429
12674SOL    HW140029   3.301   8.583   2.373
12674SOL    HW240030   3.170   8.656   2.375
12675SOL     OW40031   2.402   7.664   2.758
12675SOL    HW140032   2.421   7.667   2.854
12675SOL    HW240033   2.422   7.753   2.727
12676SOL     OW40034   2.850   8.889   2.357
12676SOL    HW140035   2.811   8.954   2.295
12676SOL    HW240036   2.849   8.937   2.441
12677SOL     OW40037   2.209   9.261   2.716
12677SOL    HW140038   2.256   9.178   2.734
12677SOL    HW240039   2.278   9.327   2.732
12678SOL     OW40040   3.681   8.495   2.749
12678SOL    HW140041   3.628   8.480   2.670
12678SOL    HW240042   3.618   8.480   2.821
12679SOL     OW40043   3.082   9.011   3.357
12679SOL    HW140044   3.058   8.945   3.424
12679SOL    HW240045   3.047   8.968   3.277
12680SOL     OW40046   2.167   8.391   2.117
12680SOL    HW140047   2.253   8.406   2.076
12680SOL    HW240048   2.141   8.306   2.080
12681SOL     OW40049   3.337   8.196   2.575
12681SOL    HW140050   3.331   8.180   2.670
12681SOL    HW240051   3.420   8.248   2.568
12682SOL     OW40052   2.324   8.723   3.587
12682SOL    HW140053   2.283   8.730   3.498
12682SOL    HW240054   2.243   8.728   3.642
12683SOL     OW40055   2.950   9.225   2.109
12683SOL    HW140056   2.883   9.169   2.152
12683SOL    HW240057   2.968   9.176   2.027
12684SOL     OW40058   2.029   7.739   3.359
12684SOL    HW140059   1.961   7.795   3.400
12684SOL    HW240060   2.016   7.655   3.405
12685SOL     OW40061   3.482   8.812   1.955
12685SOL    HW140062   3.441   8.895   1.928
12685SOL    HW240063   3.422   8.745   1.918
12686SOL     OW40064   2.317   9.188   2.176
12686SOL    HW140065   2.367   9.230   2.248
12686SOL    HW240066   2.387   9.154   2.119
12687SOL     OW40067   3.262   7.554   2.302
12687SOL    HW140068   3.260   7.510   2.215
12687SOL    HW240069   3.356   7.574   2.314
12688SOL     OW40070   2.099   9.238   3.087
12688SOL    HW140071   2.160   9.172   3.125
12688SOL    HW240072   2.084   9.205   2.998
12689SOL     OW40073   2.821   9.147   2.740
12689SOL    HW140074   2.902   9.095   2.747
12689SOL    HW240075   2.771   9.096   2.673
12690SOL     OW40076   2.259   8.140   2.331
12690SOL    HW140077   2.282   8.048   2.352
12690SOL    HW240078   2.163   8.139   2.351
12691SOL     OW40079   3.408   7.712   3.595
12691SOL    HW140080   3.402   7.720   3.694
12691SOL    HW240081   3.354   7.633   3.582
12692SOL     OW40082   2.488   7.576   1.953
12692SOL    HW140083   2.557   7.514   1.980
12692SOL    HW240084   2.443   7.526   1.881
12693SOL     OW40085   2.629   7.695   3.597
12693SOL    HW140086   2.714   7.645   3.606
12693SOL    HW240087   2.585   7.676   3.681
12694SOL     OW40088   2.748   8.986   3.059
12694SOL    HW140089   2.742   8.958   2.967
12694SOL    HW240090   2.815   8.927   3.097
12695SOL     OW40091   3.200   8.047   3.293
12695SOL    HW140092   3.236   8.014   3.379
12695SOL    HW240093   3.252   8.128   3.278
12696SOL     OW40094   2.681   8.862   2.794
12696SOL    HW140095   2.766   8.843   2.748
12696SOL    HW240096   2.619   8.871   2.720
12697SOL     OW40097   2.800   7.973   2.770
12697SOL    HW140098   2.772   7.963   2.676
12697SOL    HW240099   2.830   7.883   2.790
12698SOL     OW40100   2.425   7.491   2.363
12698SOL    HW140101   2.346   7.497   2.420
12698SOL    HW240102   2.413   7.569   2.306
12699SOL     OW40103   3.310   8.616   1.888
12699SOL    HW140104   3.341   8.543   1.943
12699SOL    HW240105   3.220   8.632   1.920
12700SOL     OW40106   2.139   7.508   2.069
12700SOL    HW140107   2.205   7.575   2.044
12700SOL    HW240108   2.198   7.435   2.100
12701SOL     OW40109   2.790   7.697   2.351
12701SOL    HW140110   2.775   7.752   2.272
12701SOL    HW240111   2.887   7.708   2.362
12702SOL     OW40112   2.950   8.124   3.335
12702SOL    HW140113   2.901   8.041   3.334
12702SOL    HW240114   3.043   8.095   3.328
12703SOL     OW40115   3.088   9.033   2.662
12703SOL    HW140116   3.089   9.081   2.578
12703SOL    HW240117   3.171   9.059   2.701
12704SOL     OW40118   2.336   8.616   2.603
12704SOL    HW140119   2.261   8.583   2.656
12704SOL    HW240120   2.303   8.599   2.512
12705SOL     OW40121   3.130   9.258   2.457
12705SOL    HW140122   3.178   9.331   2.413
12705SOL    HW240123   3.080   9.305   2.525
12706SOL     OW40124   2.919   7.980   1.895
12706SOL    HW140125   2.875   8.064   1.875
12706SOL    HW240126   2.992   8.005   1.954
12707SOL     OW40127   1.906   8.017   3.256
12707SOL    HW140128   2.000   8.000   3.242
12707SOL    HW240129   1.910   8.091   3.321
12708SOL     OW40130   2.434   7.660   3.024
12708SOL    HW140131   2.482   7.589   3.069
12708SOL    HW240132   2.346   7.655   3.065
12709SOL     OW40133   2.729   7.911   2.525
12709SOL    HW140134   2.692   7.959   2.448
12709SOL    HW240135   2.745   7.823   2.488
12710SOL     OW40136   2.878   7.527   2.632
12710SOL    HW140137   2.844   7.501   2.545
12710SOL    HW240138   2.862   7.445   2.684
12711SOL     OW40139   3.274   8.626   2.741
12711SOL    HW140140   3.235   8.543   2.771
12711SOL    HW240141   3.271   8.615   2.645
12712SOL     OW40142   3.309   8.031   2.867
12712SOL    HW140143   3.260   7.948   2.870
12712SOL    HW240144   3.379   8.019   2.933
12713SOL     OW40145   3.710   8.273   2.251
12713SOL    HW140146   3.760   8.216   2.313
12713SOL    HW240147   3.686   8.208   2.182
12714SOL     OW40148   2.356   8.871   2.000
12714SOL    HW140149   2.273   8.855   2.048
12714SOL    HW240150   2.345   8.817   1.921
12715SOL     OW40151   3.540   8.741   2.520
12715SOL    HW140152   3.637   8.739   2.525
12715SOL    HW240153   3.515   8.829   2.551
12716SOL     OW40154   3.258   8.038   1.923
12716SOL    HW140155   3.212   8.008   2.004
12716SOL    HW240156   3.347   8.005   1.938
12717SOL     OW40157   2.382   7.681   2.175
12717SOL    HW140158   2.428   7.646   2.097
12717SOL    HW240159   2.354   7.769   2.142
12718SOL     OW40160   3.593   8.679   3.438
12718SOL    HW140161   3.681   8.641   3.452
12718SOL    HW240162   3.612   8.774   3.448
12719SOL     OW40163   2.939   8.816   3.201
12719SOL    HW140164   2.862   8.778   3.248
12719SOL    HW240165   3.013   8.764   3.240
12720SOL     OW40166   3.464   9.051   3.494
12720SOL    HW140167   3.471   9.096   3.408
12720SOL    HW240168   3.547   9.002   3.498
12721SOL     OW40169   2.985   8.678   2.960
12721SOL    HW140170   2.922   8.706   3.027
12721SOL    HW240171   2.950   8.718   2.879
12722SOL     OW40172   3.456   8.546   2.939
12722SOL    HW140173   3.469   8.609   3.013
12722SOL    HW240174   3.403   8.600   2.878
12723SOL     OW40175   2.781   7.546   3.262
12723SOL    HW140176   2.811   7.524   3.172
12723SOL    HW240177   2.860   7.587   3.302
12724SOL     OW40178   2.863   8.565   3.600
12724SOL    HW140179   2.772   8.593   3.617
12724SOL    HW240180   2.852   8.487   3.542
12725SOL     OW40181   2.580   8.521   2.210
12725SOL    HW140182   2.559   8.487   2.299
12725SOL    HW240183   2.651   8.459   2.182
12726SOL     OW40184   2.278   8.251   3.123
12726SOL    HW140185   2.350   8.265   3.188
12726SOL    HW240186   2.244   8.164   3.150
12727SOL     OW40187   3.151   7.837   3.127
12727SOL    HW140188   3.171   7.913   3.186
12727SOL    HW240189   3.061   7.856   3.098
12728SOL     OW40190   1.939   9.016   3.204
12728SOL    HW140191   1.937   9.110   3.178
12728SOL    HW240192   2.035   8.995   3.198
12729SOL     OW40193   2.226   8.564   2.360
12729SOL    HW140194   2.227   8.628   2.288
12729SOL    HW240195   2.206   8.481   2.313
12730SOL     OW40196   2.393   7.995   2.709
12730SOL    HW140197   2.412   8.059   2.636
12730SOL    HW240198   2.466   8.017   2.771
12731SOL     OW40199   3.082   8.778   2.248
12731SOL    HW140200   3.128   8.855   2.287
12731SOL    HW240201   2.992   8.792   2.281
12732SOL     OW40202   3.163   8.926   3.030
12732SOL    HW140203   3.223   8.922   3.107
12732SOL    HW240204   3.095   8.860   3.054
12733SOL     OW40205   3.444   8.053   2.335
12733SOL    HW140206   3.390   8.103   2.399
12733SOL    HW240207   3.474   8.121   2.275
12734SOL     OW40208   2.204   8.965   3.173
12734SOL    HW140209   2.196   8.927   3.083
12734SOL    HW240210   2.298   8.989   3.173
12735SOL     OW40211   2.302   8.176   3.491
12735SOL    HW140212   2.356   8.227   3.428
12735SOL    HW240213   2.349   8.091   3.495
12736SOL     OW40214   3.487   8.231   3.542
12736SOL    HW140215   3.397   8.268   3.543
12736SOL    HW240216   3.528   8.278   3.467
12737SOL     OW40217   2.860   7.560   3.614
12737SOL    HW140218   2.926   7.630   3.604
12737SOL    HW240219   2.905   7.487   3.567
12738SOL     OW40220   2.368   7.456   3.623
12738SOL    HW140221   2.325   7.404   3.553
12738SOL    HW240222   2.306   7.532   3.628
12739SOL     OW40223   2.456   8.335   2.917
12739SOL    HW140224   2.485   8.428   2.918
12739SOL    HW240225   2.397   8.330   2.994
12740SOL     OW40226   3.227   8.300   2.876
12740SOL    HW140227   3.138   8.273   2.850
12740SOL    HW240228   3.269   8.214   2.890
12741SOL     OW40229   3.089   7.967   2.133
12741SOL    HW140230   3.088   7.890   2.193
12741SOL    HW240231   3.027   8.026   2.180
12742SOL     OW40232   2.154   7.653   3.106
12742SOL    HW140233   2.113   7.677   3.191
12742SOL    HW240234   2.140   7.556   3.107
12743SOL     OW40235   1.900   8.751   3.138
12743SOL    HW140236   1.928   8.693   3.212
12743SOL    HW240237   1.905   8.840   3.176
12744SOL     OW40238   2.571   8.078   2.897
12744SOL    HW140239   2.660   8.064   2.861
12744SOL    HW240240   2.556   8.175   2.891
12745SOL     OW40241   3.620   8.400   3.714
12745SOL    HW140242   3.575   8.336   3.656
12745SOL    HW240243   3.560   8.402   3.789
12746SOL     OW40244   2.178   7.505   2.473
12746SOL    HW140245   2.138   7.590   2.500
12746SOL    HW240246   2.184   7.459   2.559
12747SOL     OW40247   3.453   7.820   2.207
12747SOL    HW140248   3.488   7.750   2.265
12747SOL    HW240249   3.445   7.896   2.268
12748SOL     OW40250   2.918   8.202   2.832
12748SOL    HW140251   2.900   8.216   2.927
12748SOL    HW240252   2.885   8.110   2.821
12749SOL     OW40253   2.838   9.017   3.565
12749SOL    HW140254   2.827   9.072   3.485
12749SOL    HW240255   2.868   8.932   3.527
12750SOL     OW40256   3.711   8.942   3.463
12750SOL    HW140257   3.735   8.968   3.373
12750SOL    HW240258   3.793   8.962   3.512
12751SOL     OW40259   2.210   8.357   3.663
12751SOL    HW140260   2.287   8.391   3.711
12751SOL    HW240261   2.247   8.279   3.617
12752SOL     OW40262   3.367   7.696   1.982
12752SOL    HW140263   3.292   7.644   2.016
12752SOL    HW240264   3.403   7.738   2.063
12753SOL     OW40265   3.152   8.288   1.886
12753SOL    HW140266   3.194   8.200   1.893
12753SOL    HW240267   3.184   8.316   1.798
12754SOL     OW40268   2.923   8.807   2.706
12754SOL    HW140269   2.939   8.730   2.647
12754SOL    HW240270   2.996   8.868   2.686
12755SOL     OW40271   2.152   8.251   2.857
12755SOL    HW140272   2.239   8.274   2.821
12755SOL    HW240273   2.175   8.206   2.939
12756SOL     OW40274   2.177   7.943   2.857
12756SOL    HW140275   2.133   7.998   2.791
12756SOL    HW240276   2.270   7.956   2.826
12757SOL     OW40277   3.016   7.813   3.561
12757SOL    HW140278   2.968   7.869   3.625
12757SOL    HW240279   3.103   7.857   3.559
12758SOL     OW40280   3.036   7.647   3.346
12758SOL    HW140281   3.036   7.712   3.419
12758SOL    HW240282   3.076   7.698   3.274
12759SOL     OW40283   1.858   8.771   2.054
12759SOL    HW140284   1.766   8.780   2.022
12759SOL    HW240285   1.859   8.679   2.089
12760SOL     OW40286   1.959   9.231   2.807
12760SOL    HW140287   1.931   9.161   2.744
12760SOL    HW240288   2.048   9.254   2.773
12761SOL     OW40289   2.351   9.043   2.786
12761SOL    HW140290   2.419   9.111   2.804
12761SOL    HW240291   2.401   8.977   2.734
12762SOL     OW40292   2.833   8.212   3.094
12762SOL    HW140293   2.893   8.188   3.167
12762SOL    HW240294   2.749   8.186   3.133
12763SOL     OW40295   1.912   7.951   2.978
12763SOL    HW140296   1.992   7.985   2.937
12763SOL    HW240297   1.913   7.993   3.065
12764SOL     OW40298   2.074   7.966   3.578
12764SOL    HW140299   2.136   7.929   3.513
12764SOL    HW240300   2.030   8.036   3.527
12765SOL     OW40301   3.255   8.374   3.515
12765SOL    HW140302   3.279   8.469   3.515
12765SOL    HW240303   3.249   8.355   3.420
12766SOL     OW40304   2.658   8.001   2.262
12766SOL    HW140305   2.683   7.947   2.184
12766SOL    HW240306   2.582   8.051   2.228
12767SOL     OW40307   3.504   8.069   3.069
12767SOL    HW140308   3.484   8.003   3.137
12767SOL    HW240309   3.588   8.035   3.033
12768SOL     OW40310   2.109   8.989   3.579
12768SOL    HW140311   2.097   9.056   3.648
12768SOL    HW240312   2.120   8.907   3.632
12769SOL     OW40313   2.551   7.924   3.124
12769SOL    HW140314   2.508   7.844   3.090
12769SOL    HW240315   2.547   7.985   3.048
12770SOL     OW40316   2.776   9.153   3.344
12770SOL    HW140317   2.774   9.119   3.253
12770SOL    HW240318   2.776   9.249   3.329
12771SOL     OW40319   2.303   7.913   2.066
12771SOL    HW140320   2.368   7.985   2.066
12771SOL    HW240321   2.220   7.964   2.069
12772SOL     OW40322   1.974   8.574   3.327
12772SOL    HW140323   1.982   8.520   3.410
12772SOL    HW240324   1.997   8.510   3.257
12773SOL     OW40325   3.174   8.494   3.084
12773SOL    HW140326   3.198   8.436   3.009
12773SOL    HW240327   3.112   8.557   3.042
12774SOL     OW40328   3.170   8.308   2.156
12774SOL    HW140329   3.091   8.271   2.197
12774SOL    HW240330   3.148   8.306   2.060
12775SOL     OW40331   3.620   9.186   2.994
12775SOL    HW140332   3.695   9.208   2.936
12775SOL    HW240333   3.615   9.088   2.982
12776SOL     OW40334   3.102   9.182   2.972
12776SOL    HW140335   3.189   9.207   2.937
12776SOL    HW240336   3.114   9.086   2.989
12777SOL     OW40337   1.963   8.695   2.888
12777SOL    HW140338   1.930   8.717   2.977
12777SOL    HW240339   1.885   8.655   2.847
12778SOL     OW40340   2.554   9.086   3.599
12778SOL    HW140341   2.518   9.174   3.582
12778SOL    HW240342   2.643   9.091   3.561
12779SOL     OW40343   3.539   7.587   2.355
12779SOL    HW140344   3.617   7.577   2.298
12779SOL    HW240345   3.542   7.506   2.409
12780SOL     OW40346   3.220   9.018   2.341
12780SOL    HW140347   3.288   9.032   2.272
12780SOL    HW240348   3.189   9.108   2.359
12781SOL     OW40349   2.015   9.230   3.694
12781SOL    HW140350   1.967   9.163   3.748
12781SOL    HW240351   2.061   9.279   3.764
12782SOL     OW40352   3.111   8.364   2.526
12782SOL    HW140353   3.191   8.311   2.540
12782SOL    HW240354   3.148   8.444   2.484
12783SOL     OW40355   2.672   8.710   3.283
12783SOL    HW140356   2.644   8.756   3.366
12783SOL    HW240357   2.595   8.727   3.226
12784SOL     OW40358   2.520   9.078   2.019
12784SOL    HW140359   2.543   9.081   1.924
12784SOL    HW240360   2.464   8.996   2.019
12785SOL     OW40361   3.485   9.171   3.250
12785SOL    HW140362   3.531   9.184   3.166
12785SOL    HW240363   3.476   9.262   3.285
12786SOL     OW40364   3.704   7.615   2.839
12786SOL    HW140365   3.725   7.527   2.804
12786SOL    HW240366   3.618   7.636   2.798
12787SOL     OW40367   2.097   7.747   2.567
12787SOL    HW140368   2.012   7.788   2.540
12787SOL    HW240369   2.142   7.819   2.611
12788SOL     OW40370   3.040   9.084   1.887
12788SOL    HW140371   3.047   8.988   1.901
12788SOL    HW240372   2.976   9.090   1.814
12789SOL     OW40373   2.690   8.451   3.241
12789SOL    HW140374   2.720   8.450   3.150
12789SOL    HW240375   2.684   8.546   3.262
12790SOL     OW40376   2.764   8.354   2.132
12790SOL    HW140377   2.838   8.393   2.080
12790SOL    HW240378   2.806   8.278   2.175
12791SOL     OW40379   3.406   9.083   1.897
12791SOL    HW140380   3.310   9.086   1.890
12791SOL    HW240381   3.433   9.078   1.802
12792SOL     OW40382   2.200   8.727   3.350
12792SOL    HW140383   2.187   8.800   3.287
12792SOL    HW240384   2.121   8.672   3.339
12793SOL     OW40385   3.468   8.755   3.131
12793SOL    HW140386   3.510   8.724   3.213
12793SOL    HW240387   3.411   8.827   3.165
12794SOL     OW40388   2.911   8.561   2.584
12794SOL    HW140389   2.838   8.509   2.622
12794SOL    HW240390   2.973   8.491   2.556
12795SOL     OW40391   2.890   7.678   2.853
12795SOL    HW140392   2.879   7.636   2.765
12795SOL    HW240393   2.893   7.599   2.910
12796SOL     OW40394   2.488   8.947   2.352
12796SOL    HW140395   2.528   8.897   2.279
12796SOL    HW240396   2.405   8.977   2.314
12797SOL     OW40397   3.572   7.821   3.244
12797SOL    HW140398   3.639   7.892   3.243
12797SOL    HW240399   3.618   7.750   3.193
12798SOL     OW40400   2.105   8.829   2.132
12798SOL    HW140401   2.009   8.814   2.118
12798SOL    HW240402   2.107   8.854   2.226
12799SOL     OW40403   1.984   8.451   3.561
12799SOL    HW140404   1.914   8.437   3.627
12799SOL    HW240405   2.065   8.424   3.609
12800SOL     OW40406   2.527   7.636   3.350
12800SOL    HW140407   2.615   7.603   3.322
12800SOL    HW240408   2.546   7.665   3.441
12801SOL     OW40409   1.954   7.810   1.895
12801SOL    HW140410   1.863   7.797   1.867
12801SOL    HW240411   1.984   7.885   1.840
12802SOL     OW40412   3.312   8.311   3.251
12802SOL    HW140413   3.267   8.372   3.189
12802SOL    HW240414   3.405   8.331   3.234
12803SOL     OW40415   1.907   7.622   2.168
12803SOL    HW140416   1.910   7.708   2.124
12803SOL    HW240417   1.991   7.583   2.137
12804SOL     OW40418   3.060   8.802   1.971
12804SOL    HW140419   2.980   8.749   1.984
12804SOL    HW240420   3.093   8.808   2.063
12805SOL     OW40421   2.478   8.280   3.299
12805SOL    HW140422   2.538   8.356   3.302
12805SOL    HW240423   2.544   8.208   3.302
12806SOL     OW40424   3.369   9.235   2.828
12806SOL    HW140425   3.410   9.249   2.742
12806SOL    HW240426   3.442   9.200   2.881
12807SOL     OW40427   2.587   7.981   3.557
12807SOL    HW140428   2.629   8.047   3.616
12807SOL    HW240429   2.604   7.896   3.601
12808SOL     OW40430   3.325   8.635   3.488
12808SOL    HW140431   3.319   8.637   3.586
12808SOL    HW240432   3.420   8.651   3.474
12809SOL     OW40433   2.238   9.183   3.424
12809SOL    HW140434   2.153   9.228   3.410
12809SOL    HW240435   2.208   9.098   3.460
12810SOL     OW40436   3.559   8.339   3.098
12810SOL    HW140437   3.539   8.247   3.071
12810SOL    HW240438   3.518   8.394   3.029
12811SOL     OW40439   3.066   7.774   2.334
12811SOL    HW140440   3.131   7.703   2.322
12811SOL    HW240441   3.106   7.827   2.406
12812SOL     OW40442   2.443   8.199   2.528
12812SOL    HW140443   2.483   8.287   2.516
12812SOL    HW240444   2.373   8.199   2.461
12813SOL     OW40445   3.636   7.828   3.501
12813SOL    HW140446   3.604   7.835   3.410
12813SOL    HW240447   3.561   7.782   3.543
12814SOL     OW40448   3.598   8.395   3.359
12814SOL    HW140449   3.611   8.491   3.363
12814SOL    HW240450   3.604   8.376   3.264
12815SOL     OW40451   2.718   8.803   1.886
12815SOL    HW140452   2.698   8.816   1.980
12815SOL    HW240453   2.747   8.890   1.856
12816SOL     OW40454   2.505   9.265   2.787
12816SOL    HW140455   2.500   9.360   2.766
12816SOL    HW240456   2.600   9.249   2.796
12817SOL     OW40457   2.737   8.394   2.713
12817SOL    HW140458   2.791   8.323   2.749
12817SOL    HW240459   2.718   8.450   2.790
12818SOL     OW40460   2.953   8.452   1.964
12818SOL    HW140461   2.926   8.505   1.887
12818SOL    HW240462   3.017   8.390   1.924
12819SOL     OW40463   3.721   9.011   2.692
12819SOL    HW140464   3.633   9.001   2.656
12819SOL    HW240465   3.722   8.950   2.767
12820SOL     OW40466   2.102   8.764   3.726
12820SOL    HW140467   2.026   8.707   3.710
12820SOL    HW240468   2.091   8.783   3.821
12821SOL     OW40469   1.952   8.704   2.521
12821SOL    HW140470   1.944   8.644   2.595
12821SOL    HW240471   2.033   8.673   2.478
12822SOL     OW40472   2.542   8.845   3.480
12822SOL    HW140473   2.466   8.793   3.513
12822SOL    HW240474   2.529   8.930   3.525
12823SOL     OW40475   3.675   7.618   3.100
12823SOL    HW140476   3.700   7.526   3.111
12823SOL    HW240477   3.685   7.629   3.003
12824SOL     OW40478   2.307   7.877   2.405
12824SOL    HW140479   2.350   7.823   2.337
12824SOL    HW240480   2.257   7.811   2.455
12825SOL     OW40481   3.587   8.927   2.943
12825SOL    HW140482   3.499   8.903   2.910
12825SOL    HW240483   3.596   8.865   3.017
12826SOL     OW40484   2.187   7.984   3.151
12826SOL    HW140485   2.245   7.945   3.218
12826SOL    HW240486   2.219   7.946   3.068
12827SOL     OW40487   2.683   9.035   2.536
12827SOL    HW140488   2.673   9.063   2.444
12827SOL    HW240489   2.600   8.985   2.549
12828SOL     OW40490   3.300   7.689   2.962
12828SOL    HW140491   3.345   7.615   3.005
12828SOL    HW240492   3.255   7.733   3.036
12829SOL     OW40493   2.877   7.449   3.012
12829SOL    HW140494   2.825   7.372   2.985
12829SOL    HW240495   2.968   7.410   3.011
12830SOL     OW40496   2.653   8.788   2.171
12830SOL    HW140497   2.618   8.697   2.175
12830SOL    HW240498   2.722   8.785   2.238
12831SOL     OW40499   2.464   9.010   3.127
12831SOL    HW140500   2.468   9.096   3.175
12831SOL    HW240501   2.558   9.001   3.104
12832SOL     OW40502   3.175   7.491   2.038
12832SOL    HW140503   3.188   7.433   1.962
12832SOL    HW240504   3.090   7.456   2.074
12833SOL     OW40505   3.166   7.925   2.538
12833SOL    HW140506   3.103   8.000   2.538
12833SOL    HW240507   3.145   7.881   2.623
12834SOL     OW40508   3.464   7.654   2.726
12834SOL    HW140509   3.389   7.665   2.787
12834SOL    HW240510   3.464   7.738   2.676
12835SOL     OW40511   1.913   8.519   2.159
12835SOL    HW140512   2.004   8.501   2.131
12835SOL    HW240513   1.884   8.429   2.183
12836SOL     OW40514   2.738   9.093   2.197
12836SOL    HW140515   2.660   9.080   2.141
12836SOL    HW240516   2.717   9.172   2.250
12837SOL     OW40517   2.098   8.090   3.861
12837SOL    HW140518   2.006   8.080   3.887
12837SOL    HW240519   2.100   8.067   3.767
12838SOL     OW40520   2.088   7.726   4.725
12838SOL    HW140521   2.110   7.706   4.818
12838SOL    HW240522   2.001   7.683   4.716
12839SOL     OW40523   1.862   7.848   4.348
12839SOL    HW140524   1.780   7.869   4.397
12839SOL    HW240525   1.841   7.762   4.312
12840SOL     OW40526   2.431   8.732   4.922
12840SOL    HW140527   2.343   8.725   4.884
12840SOL    HW240528   2.438   8.826   4.943
12841SOL     OW40529   3.413   8.975   4.447
12841SOL    HW140530   3.375   8.946   4.532
12841SOL    HW240531   3.340   8.963   4.383
12842SOL     OW40532   2.976   8.137   4.409
12842SOL    HW140533   3.020   8.224   4.398
12842SOL    HW240534   2.931   8.150   4.494
12843SOL     OW40535   3.629   8.062   3.971
12843SOL    HW140536   3.623   8.056   3.873
12843SOL    HW240537   3.609   7.971   3.996
12844SOL     OW40538   2.591   8.600   4.747
12844SOL    HW140539   2.532   8.646   4.811
12844SOL    HW240540   2.633   8.676   4.703
12845SOL     OW40541   2.735   8.245   5.518
12845SOL    HW140542   2.739   8.254   5.615
12845SOL    HW240543   2.758   8.334   5.489
12846SOL     OW40544   2.548   8.479   4.376
12846SOL    HW140545   2.609   8.456   4.448
12846SOL    HW240546   2.480   8.533   4.422
12847SOL     OW40547   2.574   8.602   5.527
12847SOL    HW140548   2.613   8.688   5.554
12847SOL    HW240549   2.484   8.629   5.502
12848SOL     OW40550   2.182   8.878   4.803
12848SOL    HW140551   2.114   8.833   4.750
12848SOL    HW240552   2.233   8.929   4.737
12849SOL     OW40553   3.335   8.964   5.084
12849SOL    HW140554   3.388   9.044   5.102
12849SOL    HW240555   3.267   8.968   5.153
12850SOL     OW40556   2.298   7.858   5.230
12850SOL    HW140557   2.382   7.809   5.224
12850SOL    HW240558   2.232   7.787   5.229
12851SOL     OW40559   3.478   7.894   4.449
12851SOL    HW140560   3.418   7.938   4.387
12851SOL    HW240561   3.463   7.945   4.531
12852SOL     OW40562   2.090   9.172   4.203
12852SOL    HW140563   2.124   9.254   4.246
12852SOL    HW240564   2.147   9.168   4.125
12853SOL     OW40565   3.020   8.798   5.394
12853SOL    HW140566   3.080   8.776   5.467
12853SOL    HW240567   2.953   8.727   5.404
12854SOL     OW40568   2.112   8.886   4.251
12854SOL    HW140569   2.111   8.983   4.258
12854SOL    HW240570   2.043   8.860   4.314
12855SOL     OW40571   2.131   8.542   4.631
12855SOL    HW140572   2.128   8.464   4.689
12855SOL    HW240573   2.072   8.604   4.679
12856SOL     OW40574   2.444   9.253   5.119
12856SOL    HW140575   2.381   9.221   5.187
12856SOL    HW240576   2.477   9.335   5.159
12857SOL     OW40577   2.432   8.436   3.834
12857SOL    HW140578   2.484   8.487   3.768
12857SOL    HW240579   2.474   8.467   3.917
12858SOL     OW40580   3.409   7.589   5.082
12858SOL    HW140581   3.454   7.670   5.110
12858SOL    HW240582   3.385   7.545   5.165
12859SOL     OW40583   1.977   8.102   4.290
12859SOL    HW140584   1.947   8.011   4.305
12859SOL    HW240585   1.972   8.140   4.380
12860SOL     OW40586   3.708   9.184   4.071
12860SOL    HW140587   3.782   9.169   4.133
12860SOL    HW240588   3.723   9.277   4.046
12861SOL     OW40589   1.917   9.036   3.847
12861SOL    HW140590   1.898   8.943   3.865
12861SOL    HW240591   1.891   9.080   3.931
12862SOL     OW40592   3.551   8.338   4.357
12862SOL    HW140593   3.621   8.304   4.298
12862SOL    HW240594   3.510   8.405   4.300
12863SOL     OW40595   3.502   8.579   4.155
12863SOL    HW140596   3.595   8.569   4.129
12863SOL    HW240597   3.509   8.642   4.229
12864SOL     OW40598   1.990   8.199   5.304
12864SOL    HW140599   2.085   8.217   5.292
12864SOL    HW240600   1.962   8.279   5.351
12865SOL     OW40601   2.459   8.863   4.486
12865SOL    HW140602   2.421   8.774   4.496
12865SOL    HW240603   2.450   8.876   4.390
12866SOL     OW40604   3.156   8.709   5.143
12866SOL    HW140605   3.181   8.637   5.082
12866SOL    HW240606   3.187   8.679   5.229
12867SOL     OW40607   2.699   7.452   4.227
12867SOL    HW140608   2.733   7.544   4.219
12867SOL    HW240609   2.604   7.467   4.237
12868SOL     OW40610   2.047   8.426   4.985
12868SOL    HW140611   2.136   8.388   4.973
12868SOL    HW240612   1.990   8.363   4.939
12869SOL     OW40613   3.404   8.406   3.903
12869SOL    HW140614   3.322   8.364   3.937
12869SOL    HW240615   3.438   8.450   3.982
12870SOL     OW40616   3.028   9.267   5.322
12870SOL    HW140617   3.038   9.331   5.251
12870SOL    HW240618   3.056   9.183   5.281
12871SOL     OW40619   2.171   7.696   5.513
12871SOL    HW140620   2.242   7.755   5.537
12871SOL    HW240621   2.095   7.736   5.558
12872SOL     OW40622   3.327   8.869   4.686
12872SOL    HW140623   3.260   8.886   4.754
12872SOL    HW240624   3.300   8.781   4.653
12873SOL     OW40625   3.529   9.183   4.330
12873SOL    HW140626   3.520   9.142   4.243
12873SOL    HW240627   3.497   9.111   4.388
12874SOL     OW40628   2.453   8.160   3.981
12874SOL    HW140629   2.451   8.249   3.944
12874SOL    HW240630   2.383   8.164   4.049
12875SOL     OW40631   3.143   7.786   4.643
12875SOL    HW140632   3.054   7.752   4.663
12875SOL    HW240633   3.196   7.744   4.712
12876SOL     OW40634   3.444   9.089   4.028
12876SOL    HW140635   3.539   9.107   4.037
12876SOL    HW240636   3.436   9.086   3.931
12877SOL     OW40637   2.670   8.080   5.191
12877SOL    HW140638   2.643   8.042   5.277
12877SOL    HW240639   2.626   8.021   5.127
12878SOL     OW40640   2.851   7.823   4.965
12878SOL    HW140641   2.776   7.879   4.988
12878SOL    HW240642   2.823   7.780   4.883
12879SOL     OW40643   2.898   8.140   4.126
12879SOL    HW140644   2.918   8.156   4.220
12879SOL    HW240645   2.815   8.089   4.132
12880SOL     OW40646   1.959   8.262   4.526
12880SOL    HW140647   2.031   8.262   4.592
12880SOL    HW240648   1.919   8.349   4.541
12881SOL     OW40649   1.968   9.285   5.293
12881SOL    HW140650   1.984   9.267   5.389
12881SOL    HW240651   1.872   9.285   5.288
12882SOL     OW40652   2.747   7.834   3.924
12882SOL    HW140653   2.796   7.888   3.860
12882SOL    HW240654   2.761   7.746   3.888
12883SOL     OW40655   3.229   8.599   4.275
12883SOL    HW140656   3.308   8.589   4.221
12883SOL    HW240657   3.176   8.660   4.222
12884SOL     OW40658   2.402   7.640   4.605
12884SOL    HW140659   2.402   7.651   4.702
12884SOL    HW240660   2.398   7.732   4.575
12885SOL     OW40661   2.854   8.893   4.207
12885SOL    HW140662   2.809   8.954   4.144
12885SOL    HW240663   2.860   8.947   4.287
12886SOL     OW40664   2.202   9.262   4.575
12886SOL    HW140665   2.247   9.177   4.593
12886SOL    HW240666   2.274   9.326   4.592
12887SOL     OW40667   3.668   8.491   4.600
12887SOL    HW140668   3.616   8.461   4.524
12887SOL    HW240669   3.605   8.489   4.674
12888SOL     OW40670   3.086   9.016   5.215
12888SOL    HW140671   3.073   8.950   5.286
12888SOL    HW240672   3.044   8.972   5.140
12889SOL     OW40673   2.167   8.404   3.986
12889SOL    HW140674   2.242   8.427   3.930
12889SOL    HW240675   2.140   8.317   3.951
12890SOL     OW40676   3.330   8.206   4.453
12890SOL    HW140677   3.336   8.155   4.536
12890SOL    HW240678   3.417   8.247   4.447
12891SOL     OW40679   2.331   8.719   5.454
12891SOL    HW140680   2.293   8.718   5.364
12891SOL    HW240681   2.250   8.727   5.507
12892SOL     OW40682   2.957   9.222   3.964
12892SOL    HW140683   2.889   9.165   4.005
12892SOL    HW240684   2.974   9.176   3.879
12893SOL     OW40685   2.043   7.735   5.214
12893SOL    HW140686   1.980   7.804   5.239
12893SOL    HW240687   2.041   7.674   5.289
12894SOL     OW40688   3.484   8.814   3.820
12894SOL    HW140689   3.442   8.897   3.795
12894SOL    HW240690   3.425   8.746   3.782
12895SOL     OW40691   2.318   9.187   4.040
12895SOL    HW140692   2.367   9.236   4.109
12895SOL    HW240693   2.389   9.153   3.983
12896SOL     OW40694   3.271   7.553   4.148
12896SOL    HW140695   3.276   7.507   4.062
12896SOL    HW240696   3.364   7.571   4.168
12897SOL     OW40697   2.102   9.244   4.949
12897SOL    HW140698   2.162   9.178   4.985
12897SOL    HW240699   2.091   9.216   4.857
12898SOL     OW40700   2.826   9.153   4.601
12898SOL    HW140701   2.904   9.098   4.617
12898SOL    HW240702   2.776   9.099   4.537
12899SOL     OW40703   2.254   8.142   4.185
12899SOL    HW140704   2.276   8.050   4.211
12899SOL    HW240705   2.160   8.145   4.208
12900SOL     OW40706   2.497   7.575   3.826
12900SOL    HW140707   2.569   7.516   3.852
12900SOL    HW240708   2.450   7.520   3.760
12901SOL     OW40709   2.630   7.714   5.465
12901SOL    HW140710   2.719   7.687   5.488
12901SOL    HW240711   2.578   7.689   5.543
12902SOL     OW40712   2.748   8.987   4.923
12902SOL    HW140713   2.744   8.947   4.835
12902SOL    HW240714   2.814   8.931   4.969
12903SOL     OW40715   2.687   8.851   4.665
12903SOL    HW140716   2.773   8.844   4.618
12903SOL    HW240717   2.625   8.863   4.591
12904SOL     OW40718   2.790   7.964   4.622
12904SOL    HW140719   2.762   7.951   4.528
12904SOL    HW240720   2.816   7.873   4.645
12905SOL     OW40721   2.424   7.500   4.230
12905SOL    HW140722   2.347   7.506   4.290
12905SOL    HW240723   2.410   7.578   4.173
12906SOL     OW40724   3.313   8.617   3.748
12906SOL    HW140725   3.342   8.541   3.803
12906SOL    HW240726   3.222   8.632   3.779
12907SOL     OW40727   2.142   7.496   3.911
12907SOL    HW140728   2.201   7.569   3.891
12907SOL    HW240729   2.204   7.433   3.953
12908SOL     OW40730   2.796   7.702   4.207
12908SOL    HW140731   2.772   7.750   4.127
12908SOL    HW240732   2.892   7.720   4.209
12909SOL     OW40733   3.097   9.025   4.522
12909SOL    HW140734   3.090   9.080   4.442
12909SOL    HW240735   3.176   9.061   4.564
12910SOL     OW40736   2.332   8.629   4.468
12910SOL    HW140737   2.258   8.598   4.524
12910SOL    HW240738   2.300   8.603   4.379
12911SOL     OW40739   3.120   9.262   4.324
12911SOL    HW140740   3.169   9.331   4.277
12911SOL    HW240741   3.074   9.314   4.392
12912SOL     OW40742   2.916   7.978   3.754
12912SOL    HW140743   2.876   8.063   3.731
12912SOL    HW240744   2.985   8.000   3.818
12913SOL     OW40745   1.924   8.007   5.120
12913SOL    HW140746   2.018   7.995   5.098
12913SOL    HW240747   1.927   8.085   5.179
12914SOL     OW40748   2.433   7.674   4.878
12914SOL    HW140749   2.472   7.590   4.909
12914SOL    HW240750   2.345   7.671   4.918
12915SOL     OW40751   2.732   7.908   4.371
12915SOL    HW140752   2.696   7.957   4.295
12915SOL    HW240753   2.755   7.823   4.331
12916SOL     OW40754   2.903   7.508   4.501
12916SOL    HW140755   2.849   7.498   4.422
12916SOL    HW240756   2.875   7.432   4.556
12917SOL     OW40757   3.277   8.623   4.599
12917SOL    HW140758   3.233   8.539   4.620
12917SOL    HW240759   3.279   8.621   4.502
12918SOL     OW40760   3.371   8.037   4.680
12918SOL    HW140761   3.309   7.966   4.701
12918SOL    HW240762   3.426   8.041   4.761
12919SOL     OW40763   3.704   8.272   4.124
12919SOL    HW140764   3.761   8.211   4.175
12919SOL    HW240765   3.681   8.214   4.048
12920SOL     OW40766   2.357   8.881   3.849
12920SOL    HW140767   2.274   8.862   3.896
12920SOL    HW240768   2.349   8.826   3.770
12921SOL     OW40769   3.527   8.733   4.388
12921SOL    HW140770   3.624   8.737   4.389
12921SOL    HW240771   3.500   8.822   4.414
12922SOL     OW40772   3.269   8.047   3.782
12922SOL    HW140773   3.229   8.013   3.864
12922SOL    HW240774   3.364   8.031   3.798
12923SOL     OW40775   2.383   7.687   4.043
12923SOL    HW140776   2.430   7.654   3.963
12923SOL    HW240777   2.344   7.769   4.008
12924SOL     OW40778   3.618   8.686   5.275
12924SOL    HW140779   3.683   8.637   5.328
12924SOL    HW240780   3.631   8.776   5.308
12925SOL     OW40781   2.926   8.806   5.050
12925SOL    HW140782   2.852   8.763   5.097
12925SOL    HW240783   3.003   8.765   5.095
12926SOL     OW40784   3.479   9.052   5.360
12926SOL    HW140785   3.484   9.090   5.271
12926SOL    HW240786   3.562   9.001   5.364
12927SOL     OW40787   2.969   8.674   4.803
12927SOL    HW140788   2.922   8.718   4.875
12927SOL    HW240789   2.941   8.723   4.724
12928SOL     OW40790   3.481   8.552   4.812
12928SOL    HW140791   3.490   8.615   4.887
12928SOL    HW240792   3.416   8.600   4.758
12929SOL     OW40793   2.838   8.603   5.438
12929SOL    HW140794   2.748   8.592   5.470
12929SOL    HW240795   2.851   8.529   5.377
12930SOL     OW40796   2.567   8.500   4.068
12930SOL    HW140797   2.559   8.481   4.163
12930SOL    HW240798   2.646   8.448   4.044
12931SOL     OW40799   2.274   8.263   4.989
12931SOL    HW140800   2.347   8.255   5.054
12931SOL    HW240801   2.231   8.176   4.995
12932SOL     OW40802   3.136   7.831   4.978
12932SOL    HW140803   3.125   7.881   5.059
12932SOL    HW240804   3.043   7.821   4.950
12933SOL     OW40805   1.943   9.018   5.073
12933SOL    HW140806   1.946   9.109   5.039
12933SOL    HW240807   2.038   8.994   5.075
12934SOL     OW40808   2.240   8.560   4.231
12934SOL    HW140809   2.250   8.619   4.156
12934SOL    HW240810   2.228   8.474   4.188
12935SOL     OW40811   2.396   8.000   4.551
12935SOL    HW140812   2.423   8.063   4.482
12935SOL    HW240813   2.469   8.007   4.615
12936SOL     OW40814   3.087   8.785   4.111
12936SOL    HW140815   3.134   8.860   4.150
12936SOL    HW240816   2.996   8.802   4.140
12937SOL     OW40817   3.159   8.909   4.892
12937SOL    HW140818   3.225   8.912   4.965
12937SOL    HW240819   3.100   8.838   4.922
12938SOL     OW40820   3.439   8.057   4.205
12938SOL    HW140821   3.396   8.125   4.259
12938SOL    HW240822   3.479   8.108   4.133
12939SOL     OW40823   2.207   8.955   5.052
12939SOL    HW140824   2.196   8.924   4.959
12939SOL    HW240825   2.303   8.971   5.052
12940SOL     OW40826   2.293   8.173   5.344
12940SOL    HW140827   2.352   8.211   5.276
12940SOL    HW240828   2.346   8.096   5.371
12941SOL     OW40829   2.348   7.465   5.481
12941SOL    HW140830   2.320   7.401   5.413
12941SOL    HW240831   2.280   7.534   5.473
12942SOL     OW40832   2.424   8.345   4.765
12942SOL    HW140833   2.471   8.429   4.773
12942SOL    HW240834   2.389   8.330   4.854
12943SOL     OW40835   3.214   8.303   4.757
12943SOL    HW140836   3.154   8.263   4.694
12943SOL    HW240837   3.270   8.229   4.783
12944SOL     OW40838   3.085   7.972   3.983
12944SOL    HW140839   3.093   7.900   4.049
12944SOL    HW240840   3.022   8.031   4.028
12945SOL     OW40841   2.169   7.651   4.973
12945SOL    HW140842   2.127   7.675   5.057
12945SOL    HW240843   2.147   7.556   4.967
12946SOL     OW40844   1.888   8.753   5.008
12946SOL    HW140845   1.920   8.694   5.078
12946SOL    HW240846   1.905   8.842   5.043
12947SOL     OW40847   2.577   8.091   4.762
12947SOL    HW140848   2.655   8.077   4.705
12947SOL    HW240849   2.540   8.177   4.733
12948SOL     OW40850   2.169   7.514   4.335
12948SOL    HW140851   2.140   7.604   4.359
12948SOL    HW240852   2.173   7.472   4.423
12949SOL     OW40853   3.453   7.819   4.079
12949SOL    HW140854   3.491   7.752   4.139
12949SOL    HW240855   3.449   7.899   4.134
12950SOL     OW40856   2.905   8.200   4.673
12950SOL    HW140857   2.921   8.204   4.768
12950SOL    HW240858   2.875   8.107   4.662
12951SOL     OW40859   2.849   9.012   5.435
12951SOL    HW140860   2.838   9.066   5.354
12951SOL    HW240861   2.890   8.930   5.402
12952SOL     OW40862   3.724   8.946   5.324
12952SOL    HW140863   3.749   8.976   5.235
12952SOL    HW240864   3.802   8.973   5.377
12953SOL     OW40865   2.206   8.356   5.514
12953SOL    HW140866   2.289   8.375   5.561
12953SOL    HW240867   2.233   8.281   5.456
12954SOL     OW40868   3.364   7.704   3.849
12954SOL    HW140869   3.291   7.648   3.880
12954SOL    HW240870   3.402   7.740   3.931
12955SOL     OW40871   3.140   8.289   3.743
12955SOL    HW140872   3.181   8.201   3.754
12955SOL    HW240873   3.180   8.318   3.659
12956SOL     OW40874   2.926   8.818   4.565
12956SOL    HW140875   2.942   8.741   4.506
12956SOL    HW240876   3.001   8.878   4.546
12957SOL     OW40877   2.146   8.271   4.725
12957SOL    HW140878   2.240   8.294   4.715
12957SOL    HW240879   2.152   8.176   4.743
12958SOL     OW40880   2.183   7.991   4.717
12958SOL    HW140881   2.158   7.898   4.704
12958SOL    HW240882   2.253   8.002   4.650
12959SOL     OW40883   1.858   8.772   3.911
12959SOL    HW140884   1.766   8.785   3.878
12959SOL    HW240885   1.853   8.682   3.949
12960SOL     OW40886   1.959   9.228   4.671
12960SOL    HW140887   1.930   9.154   4.613
12960SOL    HW240888   2.048   9.247   4.634
12961SOL     OW40889   2.335   9.037   4.650
12961SOL    HW140890   2.406   9.104   4.665
12961SOL    HW240891   2.382   8.973   4.593
12962SOL     OW40892   1.883   7.964   4.837
12962SOL    HW140893   1.961   7.957   4.780
12962SOL    HW240894   1.923   7.984   4.923
12963SOL     OW40895   2.069   7.964   5.430
12963SOL    HW140896   2.138   7.932   5.370
12963SOL    HW240897   2.035   8.043   5.383
12964SOL     OW40898   2.663   8.006   4.111
12964SOL    HW140899   2.683   7.946   4.037
12964SOL    HW240900   2.592   8.061   4.073
12965SOL     OW40901   3.499   8.058   4.921
12965SOL    HW140902   3.488   7.986   4.984
12965SOL    HW240903   3.587   8.037   4.884
12966SOL     OW40904   2.114   8.991   5.439
12966SOL    HW140905   2.109   9.054   5.513
12966SOL    HW240906   2.123   8.906   5.487
12967SOL     OW40907   2.551   7.930   4.990
12967SOL    HW140908   2.503   7.852   4.958
12967SOL    HW240909   2.549   7.990   4.913
12968SOL     OW40910   2.785   9.147   5.206
12968SOL    HW140911   2.769   9.113   5.117
12968SOL    HW240912   2.786   9.243   5.194
12969SOL     OW40913   2.296   7.917   3.918
12969SOL    HW140914   2.368   7.982   3.924
12969SOL    HW240915   2.218   7.976   3.911
12970SOL     OW40916   1.970   8.578   5.193
12970SOL    HW140917   1.979   8.524   5.275
12970SOL    HW240918   1.997   8.515   5.124
12971SOL     OW40919   3.155   8.530   4.930
12971SOL    HW140920   3.182   8.457   4.871
12971SOL    HW240921   3.091   8.581   4.876
12972SOL     OW40922   3.163   8.312   4.014
12972SOL    HW140923   3.082   8.280   4.055
12972SOL    HW240924   3.141   8.310   3.919
12973SOL     OW40925   3.611   9.191   4.848
12973SOL    HW140926   3.688   9.212   4.791
12973SOL    HW240927   3.601   9.094   4.831
12974SOL     OW40928   3.101   9.171   4.841
12974SOL    HW140929   3.187   9.195   4.805
12974SOL    HW240930   3.111   9.075   4.858
12975SOL     OW40931   1.962   8.707   4.752
12975SOL    HW140932   1.930   8.724   4.844
12975SOL    HW240933   1.885   8.663   4.712
12976SOL     OW40934   2.558   9.095   5.454
12976SOL    HW140935   2.516   9.182   5.449
12976SOL    HW240936   2.650   9.114   5.429
12977SOL     OW40937   3.544   7.581   4.216
12977SOL    HW140938   3.622   7.574   4.160
12977SOL    HW240939   3.545   7.496   4.264
12978SOL     OW40940   3.231   9.029   4.209
12978SOL    HW140941   3.291   9.047   4.134
12978SOL    HW240942   3.189   9.115   4.224
12979SOL     OW40943   2.017   9.245   5.558
12979SOL    HW140944   1.974   9.171   5.607
12979SOL    HW240945   2.058   9.293   5.631
12980SOL     OW40946   3.114   8.367   4.392
12980SOL    HW140947   3.195   8.315   4.409
12980SOL    HW240948   3.150   8.444   4.343
12981SOL     OW40949   2.676   8.700   5.155
12981SOL    HW140950   2.648   8.744   5.238
12981SOL    HW240951   2.605   8.728   5.096
12982SOL     OW40952   2.529   9.074   3.886
12982SOL    HW140953   2.547   9.082   3.790
12982SOL    HW240954   2.471   8.995   3.885
12983SOL     OW40955   3.490   9.180   5.111
12983SOL    HW140956   3.535   9.191   5.025
12983SOL    HW240957   3.476   9.272   5.140
12984SOL     OW40958   3.728   7.611   4.663
12984SOL    HW140959   3.746   7.514   4.658
12984SOL    HW240960   3.635   7.619   4.636
12985SOL     OW40961   2.107   7.764   4.429
12985SOL    HW140962   2.024   7.811   4.410
12985SOL    HW240963   2.114   7.771   4.525
12986SOL     OW40964   3.044   9.082   3.751
12986SOL    HW140965   3.052   8.986   3.764
12986SOL    HW240966   2.988   9.088   3.671
12987SOL     OW40967   2.675   8.440   5.090
12987SOL    HW140968   2.727   8.460   5.013
12987SOL    HW240969   2.678   8.526   5.137
12988SOL     OW40970   2.773   8.357   3.997
12988SOL    HW140971   2.847   8.394   3.945
12988SOL    HW240972   2.812   8.279   4.039
12989SOL     OW40973   3.419   9.079   3.756
12989SOL    HW140974   3.324   9.089   3.754
12989SOL    HW240975   3.442   9.079   3.661
12990SOL     OW40976   2.207   8.720   5.218
12990SOL    HW140977   2.197   8.796   5.158
12990SOL    HW240978   2.123   8.672   5.207
12991SOL     OW40979   3.471   8.759   4.993
12991SOL    HW140980   3.516   8.733   5.075
12991SOL    HW240981   3.416   8.834   5.023
12992SOL     OW40982   2.908   8.567   4.444
12992SOL    HW140983   2.832   8.518   4.480
12992SOL    HW240984   2.969   8.496   4.421
12993SOL     OW40985   2.891   7.678   4.710
12993SOL    HW140986   2.886   7.631   4.624
12993SOL    HW240987   2.891   7.602   4.772
12994SOL     OW40988   2.482   8.941   4.221
12994SOL    HW140989   2.531   8.898   4.149
12994SOL    HW240990   2.409   8.983   4.175
12995SOL     OW40991   3.556   7.829   5.093
12995SOL    HW140992   3.619   7.901   5.112
12995SOL    HW240993   3.613   7.769   5.041
12996SOL     OW40994   2.106   8.828   3.992
12996SOL    HW140995   2.011   8.812   3.983
12996SOL    HW240996   2.114   8.851   4.087
12997SOL     OW40997   1.968   8.455   5.427
12997SOL    HW140998   1.897   8.440   5.492
12997SOL    HW240999   2.049   8.432   5.477
12998SOL     OW41000   2.525   7.696   5.206
12998SOL    HW141001   2.608   7.702   5.157
12998SOL    HW241002   2.555   7.690   5.298
12999SOL     OW41003   1.964   7.777   3.732
12999SOL    HW141004   1.868   7.786   3.728
12999SOL    HW241005   1.993   7.859   3.688
13000SOL     OW41006   1.905   7.614   4.009
13000SOL    HW141007   1.904   7.705   3.976
13000SOL    HW241008   1.988   7.580   3.970
13001SOL     OW41009   3.067   8.804   3.835
13001SOL    HW141010   2.985   8.753   3.843
13001SOL    HW241011   3.097   8.805   3.927
13002SOL     OW41012   2.474   8.259   5.161
13002SOL    HW141013   2.526   8.340   5.144
13002SOL    HW241014   2.547   8.196   5.173
13003SOL     OW41015   3.369   9.227   4.690
13003SOL    HW141016   3.407   9.267   4.611
13003SOL    HW241017   3.447   9.210   4.744
13004SOL     OW41018   2.567   8.010   5.433
13004SOL    HW141019   2.619   8.076   5.483
13004SOL    HW241020   2.588   7.926   5.475
13005SOL     OW41021   2.233   9.187   5.291
13005SOL    HW141022   2.146   9.226   5.275
13005SOL    HW241023   2.208   9.100   5.328
13006SOL     OW41024   3.570   8.335   4.987
13006SOL    HW141025   3.530   8.249   4.965
13006SOL    HW241026   3.531   8.395   4.921
13007SOL     OW41027   3.070   7.771   4.176
13007SOL    HW141028   3.135   7.699   4.168
13007SOL    HW241029   3.107   7.821   4.252
13008SOL     OW41030   2.462   8.195   4.366
13008SOL    HW141031   2.482   8.289   4.370
13008SOL    HW241032   2.393   8.190   4.297
13009SOL     OW41033   3.642   7.849   5.355
13009SOL    HW141034   3.579   7.818   5.288
13009SOL    HW241035   3.642   7.778   5.422
13010SOL     OW41036   3.624   8.393   5.244
13010SOL    HW141037   3.601   8.486   5.230
13010SOL    HW241038   3.603   8.354   5.156
13011SOL     OW41039   2.710   8.812   3.755
13011SOL    HW141040   2.695   8.827   3.850
13011SOL    HW241041   2.740   8.897   3.722
13012SOL     OW41042   2.498   9.249   4.639
13012SOL    HW141043   2.482   9.344   4.628
13012SOL    HW241044   2.594   9.243   4.649
13013SOL     OW41045   2.727   8.404   4.572
13013SOL    HW141046   2.780   8.331   4.608
13013SOL    HW241047   2.700   8.453   4.651
13014SOL     OW41048   2.956   8.460   3.826
13014SOL    HW141049   2.922   8.511   3.750
13014SOL    HW241050   3.013   8.395   3.780
13015SOL     OW41051   3.726   8.996   4.581
13015SOL    HW141052   3.637   8.995   4.547
13015SOL    HW241053   3.722   8.932   4.654
13016SOL     OW41054   2.103   8.766   5.591
13016SOL    HW141055   2.026   8.710   5.576
13016SOL    HW241056   2.091   8.792   5.684
13017SOL     OW41057   1.947   8.706   4.391
13017SOL    HW141058   1.941   8.644   4.465
13017SOL    HW241059   2.026   8.675   4.345
13018SOL     OW41060   2.530   8.851   5.327
13018SOL    HW141061   2.463   8.799   5.376
13018SOL    HW241062   2.533   8.933   5.378
13019SOL     OW41063   3.683   7.645   4.939
13019SOL    HW141064   3.657   7.555   4.960
13019SOL    HW241065   3.701   7.642   4.843
13020SOL     OW41066   2.292   7.883   4.253
13020SOL    HW141067   2.340   7.814   4.205
13020SOL    HW241068   2.247   7.835   4.324
13021SOL     OW41069   3.570   8.935   4.805
13021SOL    HW141070   3.483   8.911   4.768
13021SOL    HW241071   3.575   8.874   4.881
13022SOL     OW41072   2.184   7.987   5.005
13022SOL    HW141073   2.240   7.938   5.068
13022SOL    HW241074   2.211   7.952   4.919
13023SOL     OW41075   2.686   9.030   4.408
13023SOL    HW141076   2.681   9.062   4.317
13023SOL    HW241077   2.600   8.986   4.418
13024SOL     OW41078   3.296   7.672   4.838
13024SOL    HW141079   3.348   7.623   4.904
13024SOL    HW241080   3.242   7.728   4.897
13025SOL     OW41081   2.874   7.456   4.856
13025SOL    HW141082   2.811   7.384   4.852
13025SOL    HW241083   2.959   7.408   4.855
13026SOL     OW41084   2.655   8.787   4.036
13026SOL    HW141085   2.619   8.697   4.034
13026SOL    HW241086   2.725   8.781   4.102
13027SOL     OW41087   2.459   9.012   4.980
13027SOL    HW141088   2.454   9.100   5.022
13027SOL    HW241089   2.555   9.005   4.967
13028SOL     OW41090   3.172   7.485   3.884
13028SOL    HW141091   3.183   7.409   3.827
13028SOL    HW241092   3.086   7.464   3.927
13029SOL     OW41093   3.148   7.913   4.394
13029SOL    HW141094   3.092   7.992   4.398
13029SOL    HW241095   3.137   7.874   4.483
13030SOL     OW41096   3.472   7.652   4.592
13030SOL    HW141097   3.393   7.671   4.646
13030SOL    HW241098   3.473   7.726   4.529
13031SOL     OW41099   1.902   8.531   4.033
13031SOL    HW141100   1.995   8.525   4.005
13031SOL    HW241101   1.884   8.437   4.053
13032SOL     OW41102   2.738   9.091   4.054
13032SOL    HW141103   2.660   9.082   3.995
13032SOL    HW241104   2.718   9.173   4.104
13033SOL     OW41105   2.091   8.095   5.719
13033SOL    HW141106   2.001   8.072   5.749
13033SOL    HW241107   2.090   8.072   5.625
13034SOL     OW41108   2.079   7.734   6.591
13034SOL    HW141109   2.103   7.707   6.682
13034SOL    HW241110   1.992   7.690   6.581
13035SOL     OW41111   1.869   7.846   6.213
13035SOL    HW141112   1.783   7.865   6.257
13035SOL    HW241113   1.851   7.761   6.172
13036SOL     OW41114   2.431   8.740   6.777
13036SOL    HW141115   2.341   8.734   6.741
13036SOL    HW241116   2.439   8.835   6.795
13037SOL     OW41117   3.347   9.026   6.299
13037SOL    HW141118   3.361   8.954   6.362
13037SOL    HW241119   3.299   8.986   6.224
13038SOL     OW41120   2.984   8.170   6.289
13038SOL    HW141121   3.073   8.207   6.292
13038SOL    HW241122   2.956   8.176   6.381
13039SOL     OW41123   2.591   8.608   6.603
13039SOL    HW141124   2.534   8.652   6.669
13039SOL    HW241125   2.629   8.685   6.558
13040SOL     OW41126   2.732   8.195   7.385
13040SOL    HW141127   2.714   8.259   7.454
13040SOL    HW241128   2.760   8.251   7.309
13041SOL     OW41129   2.553   8.484   6.237
13041SOL    HW141130   2.615   8.448   6.303
13041SOL    HW241131   2.489   8.532   6.293
13042SOL     OW41132   2.551   8.602   7.390
13042SOL    HW141133   2.598   8.685   7.411
13042SOL    HW241134   2.463   8.635   7.363
13043SOL     OW41135   2.184   8.873   6.652
13043SOL    HW141136   2.113   8.828   6.602
13043SOL    HW241137   2.232   8.925   6.584
13044SOL     OW41138   3.342   8.954   6.957
13044SOL    HW141139   3.394   9.037   6.963
13044SOL    HW241140   3.271   8.970   7.020
13045SOL     OW41141   2.294   7.847   7.109
13045SOL    HW141142   2.372   7.791   7.097
13045SOL    HW241143   2.220   7.790   7.084
13046SOL     OW41144   2.088   9.160   6.054
13046SOL    HW141145   2.117   9.235   6.110
13046SOL    HW241146   2.155   9.161   5.984
13047SOL     OW41147   2.985   8.800   7.245
13047SOL    HW141148   3.035   8.796   7.328
13047SOL    HW241149   2.945   8.712   7.244
13048SOL     OW41150   2.115   8.882   6.116
13048SOL    HW141151   2.110   8.979   6.121
13048SOL    HW241152   2.045   8.855   6.177
13049SOL     OW41153   2.125   8.535   6.488
13049SOL    HW141154   2.135   8.459   6.546
13049SOL    HW241155   2.071   8.595   6.542
13050SOL     OW41156   2.456   9.239   6.993
13050SOL    HW141157   2.384   9.214   7.054
13050SOL    HW241158   2.482   9.327   7.026
13051SOL     OW41159   2.454   8.434   5.704
13051SOL    HW141160   2.502   8.489   5.638
13051SOL    HW241161   2.491   8.468   5.787
13052SOL     OW41162   1.972   8.102   6.148
13052SOL    HW141163   1.946   8.009   6.163
13052SOL    HW241164   1.967   8.139   6.238
13053SOL     OW41165   3.712   9.207   5.916
13053SOL    HW141166   3.775   9.183   5.987
13053SOL    HW241167   3.732   9.301   5.901
13054SOL     OW41168   1.919   9.043   5.703
13054SOL    HW141169   1.910   8.949   5.724
13054SOL    HW241170   1.881   9.085   5.781
13055SOL     OW41171   1.987   8.191   7.167
13055SOL    HW141172   2.080   8.216   7.157
13055SOL    HW241173   1.952   8.270   7.211
13056SOL     OW41174   2.452   8.858   6.340
13056SOL    HW141175   2.414   8.769   6.355
13056SOL    HW241176   2.443   8.865   6.243
13057SOL     OW41177   3.155   8.690   7.009
13057SOL    HW141178   3.180   8.617   6.949
13057SOL    HW241179   3.213   8.673   7.086
13058SOL     OW41180   2.705   7.433   6.099
13058SOL    HW141181   2.729   7.526   6.083
13058SOL    HW241182   2.608   7.436   6.092
13059SOL     OW41183   2.040   8.424   6.843
13059SOL    HW141184   2.131   8.389   6.836
13059SOL    HW241185   1.988   8.352   6.805
13060SOL     OW41186   3.045   9.243   7.200
13060SOL    HW141187   3.052   9.310   7.131
13060SOL    HW241188   3.070   9.162   7.151
13061SOL     OW41189   2.192   7.683   7.386
13061SOL    HW141190   2.260   7.750   7.404
13061SOL    HW241191   2.115   7.722   7.430
13062SOL     OW41192   3.317   8.870   6.548
13062SOL    HW141193   3.247   8.884   6.615
13062SOL    HW241194   3.301   8.778   6.519
13063SOL     OW41195   3.526   9.180   6.170
13063SOL    HW141196   3.504   9.136   6.087
13063SOL    HW241197   3.474   9.127   6.234
13064SOL     OW41198   2.457   8.171   5.851
13064SOL    HW141199   2.456   8.259   5.811
13064SOL    HW241200   2.386   8.175   5.918
13065SOL     OW41201   3.114   7.842   6.536
13065SOL    HW141202   3.048   7.774   6.556
13065SOL    HW241203   3.189   7.816   6.593
13066SOL     OW41204   3.440   9.089   5.891
13066SOL    HW141205   3.530   9.123   5.898
13066SOL    HW241206   3.430   9.086   5.794
13067SOL     OW41207   2.671   8.075   7.052
13067SOL    HW141208   2.642   8.037   7.138
13067SOL    HW241209   2.626   8.015   6.989
13068SOL     OW41210   3.265   7.918   7.241
13068SOL    HW141211   3.282   7.980   7.314
13068SOL    HW241212   3.323   7.841   7.262
13069SOL     OW41213   2.824   8.340   7.171
13069SOL    HW141214   2.871   8.260   7.141
13069SOL    HW241215   2.783   8.371   7.088
13070SOL     OW41216   2.835   7.859   6.804
13070SOL    HW141217   2.753   7.845   6.851
13070SOL    HW241218   2.838   7.787   6.740
13071SOL     OW41219   2.870   8.194   6.019
13071SOL    HW141220   2.902   8.186   6.110
13071SOL    HW241221   2.855   8.100   5.996
13072SOL     OW41222   1.962   8.254   6.381
13072SOL    HW141223   2.038   8.259   6.440
13072SOL    HW241224   1.915   8.336   6.403
13073SOL     OW41225   1.967   9.284   7.155
13073SOL    HW141226   1.982   9.262   7.249
13073SOL    HW241227   1.872   9.273   7.145
13074SOL     OW41228   2.750   7.795   5.804
13074SOL    HW141229   2.831   7.848   5.798
13074SOL    HW241230   2.787   7.707   5.787
13075SOL     OW41231   3.581   8.037   7.420
13075SOL    HW141232   3.541   8.113   7.373
13075SOL    HW241233   3.602   7.977   7.347
13076SOL     OW41234   3.213   8.635   6.163
13076SOL    HW141235   3.300   8.595   6.149
13076SOL    HW241236   3.183   8.651   6.073
13077SOL     OW41237   2.395   7.630   6.472
13077SOL    HW141238   2.409   7.651   6.567
13077SOL    HW241239   2.391   7.717   6.432
13078SOL     OW41240   2.809   8.901   6.093
13078SOL    HW141241   2.791   8.963   6.019
13078SOL    HW241242   2.879   8.946   6.141
13079SOL     OW41243   2.207   9.261   6.446
13079SOL    HW141244   2.253   9.176   6.462
13079SOL    HW241245   2.280   9.324   6.456
13080SOL     OW41246   3.665   8.522   6.444
13080SOL    HW141247   3.621   8.478   6.369
13080SOL    HW241248   3.596   8.519   6.513
13081SOL     OW41249   3.095   9.007   7.078
13081SOL    HW141250   3.068   8.940   7.143
13081SOL    HW241251   3.057   8.970   6.997
13082SOL     OW41252   2.159   8.401   5.831
13082SOL    HW141253   2.236   8.429   5.779
13082SOL    HW241254   2.144   8.311   5.800
13083SOL     OW41255   2.324   8.723   7.310
13083SOL    HW141256   2.286   8.721   7.219
13083SOL    HW241257   2.242   8.726   7.363
13084SOL     OW41258   2.955   9.225   5.822
13084SOL    HW141259   2.907   9.166   5.882
13084SOL    HW241260   2.976   9.169   5.746
13085SOL     OW41261   2.032   7.736   7.079
13085SOL    HW141262   1.963   7.795   7.114
13085SOL    HW241263   2.015   7.653   7.126
13086SOL     OW41264   3.468   8.778   5.664
13086SOL    HW141265   3.431   8.866   5.650
13086SOL    HW241266   3.398   8.722   5.624
13087SOL     OW41267   2.317   9.193   5.902
13087SOL    HW141268   2.366   9.242   5.971
13087SOL    HW241269   2.389   9.162   5.844
13088SOL     OW41270   2.101   9.246   6.809
13088SOL    HW141271   2.158   9.184   6.856
13088SOL    HW241272   2.094   9.206   6.721
13089SOL     OW41273   2.814   9.150   6.489
13089SOL    HW141274   2.902   9.110   6.488
13089SOL    HW241275   2.772   9.105   6.413
13090SOL     OW41276   2.245   8.158   6.047
13090SOL    HW141277   2.267   8.065   6.071
13090SOL    HW241278   2.149   8.158   6.066
13091SOL     OW41279   3.413   7.705   7.293
13091SOL    HW141280   3.403   7.692   7.390
13091SOL    HW241281   3.371   7.625   7.257
13092SOL     OW41282   2.483   7.579   5.687
13092SOL    HW141283   2.551   7.519   5.719
13092SOL    HW241284   2.434   7.521   5.624
13093SOL     OW41285   2.631   7.717   7.316
13093SOL    HW141286   2.713   7.662   7.321
13093SOL    HW241287   2.585   7.692   7.397
13094SOL     OW41288   2.748   8.985   6.784
13094SOL    HW141289   2.741   8.974   6.688
13094SOL    HW241290   2.813   8.917   6.808
13095SOL     OW41291   3.199   8.044   7.009
13095SOL    HW141292   3.243   7.996   7.081
13095SOL    HW241293   3.270   8.101   6.974
13096SOL     OW41294   2.669   8.856   6.504
13096SOL    HW141295   2.755   8.849   6.459
13096SOL    HW241296   2.605   8.862   6.431
13097SOL     OW41297   2.797   7.979   6.500
13097SOL    HW141298   2.778   7.968   6.404
13097SOL    HW241299   2.837   7.894   6.523
13098SOL     OW41300   2.432   7.504   6.079
13098SOL    HW141301   2.366   7.515   6.149
13098SOL    HW241302   2.414   7.583   6.024
13099SOL     OW41303   2.141   7.493   5.767
13099SOL    HW141304   2.201   7.566   5.750
13099SOL    HW241305   2.200   7.430   5.813
13100SOL     OW41306   2.779   7.701   6.072
13100SOL    HW141307   2.756   7.752   5.993
13100SOL    HW241308   2.873   7.720   6.082
13101SOL     OW41309   2.956   8.130   7.065
13101SOL    HW141310   2.906   8.048   7.061
13101SOL    HW241311   3.048   8.099   7.052
13102SOL     OW41312   3.078   9.041   6.408
13102SOL    HW141313   3.073   9.104   6.333
13102SOL    HW241314   3.173   9.039   6.423
13103SOL     OW41315   2.331   8.617   6.331
13103SOL    HW141316   2.258   8.587   6.388
13103SOL    HW241317   2.295   8.596   6.242
13104SOL     OW41318   1.920   8.007   6.980
13104SOL    HW141319   2.015   7.991   6.966
13104SOL    HW241320   1.923   8.083   7.042
13105SOL     OW41321   2.429   7.673   6.743
13105SOL    HW141322   2.477   7.601   6.786
13105SOL    HW241323   2.339   7.659   6.776
13106SOL     OW41324   2.725   7.914   6.248
13106SOL    HW141325   2.702   7.963   6.168
13106SOL    HW241326   2.728   7.823   6.215
13107SOL     OW41327   2.849   7.485   6.360
13107SOL    HW141328   2.812   7.451   6.277
13107SOL    HW241329   2.841   7.409   6.419
13108SOL     OW41330   3.286   8.602   6.470
13108SOL    HW141331   3.263   8.511   6.494
13108SOL    HW241332   3.288   8.597   6.373
13109SOL     OW41333   2.352   8.882   5.706
13109SOL    HW141334   2.273   8.857   5.757
13109SOL    HW241335   2.351   8.821   5.631
13110SOL     OW41336   3.584   8.816   6.263
13110SOL    HW141337   3.651   8.747   6.246
13110SOL    HW241338   3.502   8.767   6.248
13111SOL     OW41339   2.357   7.698   5.908
13111SOL    HW141340   2.409   7.670   5.831
13111SOL    HW241341   2.328   7.786   5.879
13112SOL     OW41342   3.588   8.684   7.172
13112SOL    HW141343   3.673   8.648   7.142
13112SOL    HW241344   3.614   8.775   7.195
13113SOL     OW41345   2.932   8.798   6.913
13113SOL    HW141346   2.859   8.762   6.965
13113SOL    HW241347   3.009   8.756   6.958
13114SOL     OW41348   3.470   9.069   7.229
13114SOL    HW141349   3.472   9.104   7.138
13114SOL    HW241350   3.547   9.009   7.228
13115SOL     OW41351   2.978   8.666   6.674
13115SOL    HW141352   2.923   8.711   6.740
13115SOL    HW241353   2.951   8.707   6.590
13116SOL     OW41354   3.490   8.571   6.655
13116SOL    HW141355   3.473   8.620   6.738
13116SOL    HW241356   3.416   8.599   6.598
13117SOL     OW41357   2.788   7.576   6.959
13117SOL    HW141358   2.822   7.532   6.878
13117SOL    HW241359   2.871   7.607   7.001
13118SOL     OW41360   2.858   8.560   7.335
13118SOL    HW141361   2.769   8.595   7.350
13118SOL    HW241362   2.843   8.491   7.268
13119SOL     OW41363   2.582   8.507   5.936
13119SOL    HW141364   2.577   8.488   6.032
13119SOL    HW241365   2.652   8.446   5.904
13120SOL     OW41366   2.277   8.264   6.860
13120SOL    HW141367   2.355   8.262   6.920
13120SOL    HW241368   2.246   8.172   6.863
13121SOL     OW41369   3.140   7.821   6.862
13121SOL    HW141370   3.177   7.907   6.890
13121SOL    HW241371   3.052   7.845   6.831
13122SOL     OW41372   1.941   9.020   6.934
13122SOL    HW141373   1.945   9.110   6.899
13122SOL    HW241374   2.035   8.992   6.929
13123SOL     OW41375   2.224   8.560   6.091
13123SOL    HW141376   2.251   8.624   6.024
13123SOL    HW241377   2.217   8.478   6.040
13124SOL     OW41378   2.398   7.990   6.425
13124SOL    HW141379   2.421   8.059   6.359
13124SOL    HW241380   2.466   8.005   6.492
13125SOL     OW41381   3.063   8.780   5.964
13125SOL    HW141382   3.114   8.853   6.005
13125SOL    HW241383   2.984   8.777   6.019
13126SOL     OW41384   3.151   8.922   6.762
13126SOL    HW141385   3.226   8.912   6.825
13126SOL    HW241386   3.092   8.850   6.789
13127SOL     OW41387   2.200   8.951   6.902
13127SOL    HW141388   2.193   8.919   6.809
13127SOL    HW241389   2.295   8.976   6.902
13128SOL     OW41390   2.296   8.174   7.206
13128SOL    HW141391   2.351   8.223   7.142
13128SOL    HW241392   2.338   8.087   7.204
13129SOL     OW41393   3.484   8.240   7.278
13129SOL    HW141394   3.391   8.259   7.255
13129SOL    HW241395   3.531   8.276   7.200
13130SOL     OW41396   2.855   7.558   7.329
13130SOL    HW141397   2.921   7.629   7.330
13130SOL    HW241398   2.902   7.491   7.276
13131SOL     OW41399   2.355   7.463   7.349
13131SOL    HW141400   2.316   7.406   7.279
13131SOL    HW241401   2.292   7.537   7.349
13132SOL     OW41402   2.428   8.353   6.632
13132SOL    HW141403   2.475   8.437   6.633
13132SOL    HW241404   2.391   8.346   6.721
13133SOL     OW41405   3.237   8.319   6.617
13133SOL    HW141406   3.172   8.262   6.574
13133SOL    HW241407   3.308   8.255   6.635
13134SOL     OW41408   3.008   7.956   5.950
13134SOL    HW141409   3.069   7.889   5.986
13134SOL    HW241410   3.065   8.034   5.946
13135SOL     OW41411   2.156   7.645   6.838
13135SOL    HW141412   2.108   7.673   6.918
13135SOL    HW241413   2.133   7.549   6.834
13136SOL     OW41414   1.885   8.754   6.870
13136SOL    HW141415   1.912   8.693   6.942
13136SOL    HW241416   1.902   8.842   6.907
13137SOL     OW41417   2.569   8.070   6.628
13137SOL    HW141418   2.655   8.037   6.594
13137SOL    HW241419   2.569   8.165   6.606
13138SOL     OW41420   3.628   8.414   7.434
13138SOL    HW141421   3.579   8.348   7.380
13138SOL    HW241422   3.567   8.423   7.509
13139SOL     OW41423   2.158   7.517   6.201
13139SOL    HW141424   2.140   7.608   6.229
13139SOL    HW241425   2.164   7.472   6.288
13140SOL     OW41426   2.922   8.204   6.560
13140SOL    HW141427   2.915   8.215   6.656
13140SOL    HW241428   2.885   8.115   6.547
13141SOL     OW41429   2.835   9.013   7.286
13141SOL    HW141430   2.832   9.064   7.202
13141SOL    HW241431   2.874   8.929   7.257
13142SOL     OW41432   3.705   8.940   7.192
13142SOL    HW141433   3.727   8.962   7.099
13142SOL    HW241434   3.788   8.967   7.237
13143SOL     OW41435   2.213   8.349   7.388
13143SOL    HW141436   2.294   8.373   7.434
13143SOL    HW241437   2.241   8.272   7.334
13144SOL     OW41438   2.923   8.818   6.437
13144SOL    HW141439   2.944   8.743   6.376
13144SOL    HW241440   2.996   8.882   6.422
13145SOL     OW41441   2.152   8.264   6.586
13145SOL    HW141442   2.247   8.280   6.573
13145SOL    HW241443   2.151   8.170   6.610
13146SOL     OW41444   2.184   7.986   6.590
13146SOL    HW141445   2.156   7.894   6.574
13146SOL    HW241446   2.253   7.996   6.520
13147SOL     OW41447   3.012   7.831   7.283
13147SOL    HW141448   2.974   7.887   7.353
13147SOL    HW241449   3.104   7.865   7.276
13148SOL     OW41450   3.026   7.651   7.066
13148SOL    HW141451   3.040   7.721   7.133
13148SOL    HW241452   3.090   7.679   6.997
13149SOL     OW41453   1.864   8.770   5.775
13149SOL    HW141454   1.773   8.786   5.743
13149SOL    HW241455   1.857   8.679   5.811
13150SOL     OW41456   1.957   9.229   6.533
13150SOL    HW141457   1.929   9.156   6.474
13150SOL    HW241458   2.047   9.247   6.499
13151SOL     OW41459   2.348   9.039   6.514
13151SOL    HW141460   2.422   9.095   6.546
13151SOL    HW241461   2.395   8.979   6.453
13152SOL     OW41462   2.843   8.232   6.835
13152SOL    HW141463   2.899   8.198   6.908
13152SOL    HW241464   2.756   8.198   6.861
13153SOL     OW41465   1.889   7.969   6.695
13153SOL    HW141466   1.970   7.957   6.643
13153SOL    HW241467   1.924   7.988   6.783
13154SOL     OW41468   2.077   7.961   7.296
13154SOL    HW141469   2.139   7.924   7.232
13154SOL    HW241470   2.041   8.037   7.248
13155SOL     OW41471   3.239   8.343   7.217
13155SOL    HW141472   3.268   8.436   7.212
13155SOL    HW241473   3.228   8.319   7.123
13156SOL     OW41474   2.655   7.995   5.980
13156SOL    HW141475   2.676   7.935   5.906
13156SOL    HW241476   2.604   8.065   5.936
13157SOL     OW41477   2.116   8.990   7.305
13157SOL    HW141478   2.102   9.055   7.375
13157SOL    HW241479   2.121   8.907   7.354
13158SOL     OW41480   2.543   7.929   6.855
13158SOL    HW141481   2.504   7.847   6.819
13158SOL    HW241482   2.550   7.985   6.774
13159SOL     OW41483   2.791   9.137   7.051
13159SOL    HW141484   2.781   9.100   6.961
13159SOL    HW241485   2.785   9.233   7.036
13160SOL     OW41486   2.307   7.941   5.787
13160SOL    HW141487   2.375   8.010   5.792
13160SOL    HW241488   2.226   7.994   5.774
13161SOL     OW41489   1.965   8.576   7.056
13161SOL    HW141490   1.979   8.521   7.137
13161SOL    HW241491   1.994   8.515   6.985
13162SOL     OW41492   3.163   8.506   6.812
13162SOL    HW141493   3.190   8.443   6.744
13162SOL    HW241494   3.100   8.564   6.764
13163SOL     OW41495   3.127   8.276   5.882
13163SOL    HW141496   3.044   8.276   5.931
13163SOL    HW241497   3.130   8.362   5.835
13164SOL     OW41498   3.631   9.184   6.721
13164SOL    HW141499   3.703   9.196   6.656
13164SOL    HW241500   3.612   9.088   6.709
13165SOL     OW41501   3.102   9.185   6.698
13165SOL    HW141502   3.187   9.204   6.654
13165SOL    HW241503   3.108   9.089   6.712
13166SOL     OW41504   1.965   8.709   6.615
13166SOL    HW141505   1.934   8.724   6.707
13166SOL    HW241506   1.888   8.666   6.575
13167SOL     OW41507   2.558   9.089   7.327
13167SOL    HW141508   2.526   9.178   7.307
13167SOL    HW241509   2.648   9.089   7.288
13168SOL     OW41510   3.204   9.012   6.047
13168SOL    HW141511   3.274   9.036   5.984
13168SOL    HW241512   3.172   9.099   6.077
13169SOL     OW41513   2.016   9.236   7.420
13169SOL    HW141514   1.966   9.172   7.473
13169SOL    HW241515   2.062   9.287   7.490
13170SOL     OW41516   2.683   8.703   7.029
13170SOL    HW141517   2.647   8.750   7.107
13170SOL    HW241518   2.624   8.738   6.960
13171SOL     OW41519   2.520   9.087   5.737
13171SOL    HW141520   2.549   9.086   5.644
13171SOL    HW241521   2.466   9.004   5.737
13172SOL     OW41522   3.491   9.170   6.976
13172SOL    HW141523   3.538   9.181   6.891
13172SOL    HW241524   3.480   9.263   7.006
13173SOL     OW41525   2.112   7.766   6.309
13173SOL    HW141526   2.028   7.807   6.280
13173SOL    HW241527   2.107   7.774   6.405
13174SOL     OW41528   3.052   9.088   5.610
13174SOL    HW141529   3.059   8.994   5.639
13174SOL    HW241530   2.984   9.082   5.540
13175SOL     OW41531   2.683   8.448   6.967
13175SOL    HW141532   2.731   8.450   6.884
13175SOL    HW241533   2.686   8.541   6.997
13176SOL     OW41534   2.774   8.351   5.833
13176SOL    HW141535   2.854   8.403   5.826
13176SOL    HW241536   2.798   8.284   5.901
13177SOL     OW41537   3.418   9.086   5.621
13177SOL    HW141538   3.322   9.093   5.614
13177SOL    HW241539   3.444   9.074   5.527
13178SOL     OW41540   2.201   8.720   7.077
13178SOL    HW141541   2.197   8.790   7.011
13178SOL    HW241542   2.121   8.669   7.060
13179SOL     OW41543   3.452   8.732   6.876
13179SOL    HW141544   3.538   8.741   6.919
13179SOL    HW241545   3.404   8.811   6.908
13180SOL     OW41546   2.912   8.581   6.302
13180SOL    HW141547   2.845   8.516   6.324
13180SOL    HW241548   2.987   8.527   6.272
13181SOL     OW41549   2.892   7.674   6.572
13181SOL    HW141550   2.874   7.633   6.486
13181SOL    HW241551   2.893   7.595   6.630
13182SOL     OW41552   2.472   8.919   6.077
13182SOL    HW141553   2.530   8.884   6.008
13182SOL    HW241554   2.430   8.994   6.034
13183SOL     OW41555   2.109   8.825   5.854
13183SOL    HW141556   2.014   8.802   5.847
13183SOL    HW241557   2.116   8.850   5.949
13184SOL     OW41558   1.982   8.446   7.287
13184SOL    HW141559   1.910   8.433   7.352
13184SOL    HW241560   2.062   8.420   7.338
13185SOL     OW41561   2.545   7.631   7.065
13185SOL    HW141562   2.633   7.617   7.024
13185SOL    HW241563   2.569   7.669   7.151
13186SOL     OW41564   1.942   7.835   5.631
13186SOL    HW141565   1.859   7.811   5.591
13186SOL    HW241566   1.981   7.893   5.562
13187SOL     OW41567   3.336   8.285   6.946
13187SOL    HW141568   3.301   8.358   6.894
13187SOL    HW241569   3.400   8.242   6.884
13188SOL     OW41570   1.919   7.613   5.882
13188SOL    HW141571   1.919   7.701   5.841
13188SOL    HW241572   2.001   7.574   5.846
13189SOL     OW41573   3.052   8.841   5.698
13189SOL    HW141574   3.002   8.760   5.686
13189SOL    HW241575   3.088   8.825   5.788
13190SOL     OW41576   2.485   8.265   7.024
13190SOL    HW141577   2.539   8.346   7.026
13190SOL    HW241578   2.556   8.198   7.033
13191SOL     OW41579   3.370   9.233   6.559
13191SOL    HW141580   3.392   9.234   6.465
13191SOL    HW241581   3.449   9.193   6.597
13192SOL     OW41582   2.568   7.994   7.285
13192SOL    HW141583   2.625   8.055   7.334
13192SOL    HW241584   2.599   7.905   7.312
13193SOL     OW41585   3.326   8.630   7.210
13193SOL    HW141586   3.330   8.629   7.308
13193SOL    HW241587   3.419   8.649   7.186
13194SOL     OW41588   2.233   9.183   7.150
13194SOL    HW141589   2.147   9.225   7.135
13194SOL    HW241590   2.204   9.097   7.187
13195SOL     OW41591   2.438   8.200   6.259
13195SOL    HW141592   2.479   8.286   6.245
13195SOL    HW241593   2.375   8.194   6.186
13196SOL     OW41594   3.638   7.839   7.217
13196SOL    HW141595   3.620   7.879   7.131
13196SOL    HW241596   3.559   7.783   7.233
13197SOL     OW41597   3.612   8.366   7.082
13197SOL    HW141598   3.584   8.456   7.058
13197SOL    HW241599   3.603   8.317   6.998
13198SOL     OW41600   2.687   8.839   5.608
13198SOL    HW141601   2.699   8.837   5.705
13198SOL    HW241602   2.751   8.905   5.578
13199SOL     OW41603   2.525   9.246   6.544
13199SOL    HW141604   2.515   9.335   6.507
13199SOL    HW241605   2.608   9.217   6.504
13200SOL     OW41606   2.736   8.393   6.423
13200SOL    HW141607   2.792   8.327   6.469
13200SOL    HW241608   2.725   8.460   6.492
13201SOL     OW41609   3.724   9.008   6.418
13201SOL    HW141610   3.668   8.955   6.359
13201SOL    HW241611   3.767   8.940   6.471
13202SOL     OW41612   2.101   8.766   7.451
13202SOL    HW141613   2.021   8.714   7.436
13202SOL    HW241614   2.097   8.779   7.548
13203SOL     OW41615   1.948   8.702   6.244
13203SOL    HW141616   1.952   8.652   6.327
13203SOL    HW241617   2.023   8.664   6.195
13204SOL     OW41618   2.540   8.842   7.207
13204SOL    HW141619   2.463   8.792   7.237
13204SOL    HW241620   2.526   8.929   7.249
13205SOL     OW41621   2.267   7.896   6.120
13205SOL    HW141622   2.307   7.823   6.072
13205SOL    HW241623   2.237   7.855   6.203
13206SOL     OW41624   3.573   8.930   6.692
13206SOL    HW141625   3.494   8.896   6.647
13206SOL    HW241626   3.601   8.853   6.744
13207SOL     OW41627   2.185   7.990   6.869
13207SOL    HW141628   2.262   7.952   6.915
13207SOL    HW241629   2.200   7.966   6.776
13208SOL     OW41630   2.665   9.061   6.282
13208SOL    HW141631   2.700   9.071   6.193
13208SOL    HW241632   2.600   8.991   6.272
13209SOL     OW41633   3.274   7.670   6.691
13209SOL    HW141634   3.299   7.587   6.735
13209SOL    HW241635   3.244   7.726   6.766
13210SOL     OW41636   2.868   7.451   6.731
13210SOL    HW141637   2.822   7.370   6.706
13210SOL    HW241638   2.962   7.419   6.728
13211SOL     OW41639   2.655   8.786   5.896
13211SOL    HW141640   2.628   8.693   5.903
13211SOL    HW241641   2.715   8.797   5.971
13212SOL     OW41642   2.460   9.009   6.849
13212SOL    HW141643   2.462   9.096   6.896
13212SOL    HW241644   2.555   9.002   6.826
13213SOL     OW41645   3.125   7.928   6.284
13213SOL    HW141646   3.059   7.998   6.286
13213SOL    HW241647   3.127   7.897   6.377
13214SOL     OW41648   3.437   7.647   6.485
13214SOL    HW141649   3.365   7.670   6.547
13214SOL    HW241650   3.416   7.697   6.405
13215SOL     OW41651   1.900   8.524   5.897
13215SOL    HW141652   1.992   8.518   5.869
13215SOL    HW241653   1.884   8.431   5.927
13216SOL     OW41654   2.730   9.093   5.918
13216SOL    HW141655   2.657   9.094   5.853
13216SOL    HW241656   2.720   9.178   5.966
13217SOL     OW41657   2.102   8.090   7.584
13217SOL    HW141658   2.011   8.068   7.610
13217SOL    HW241659   2.108   8.062   7.492
13218SOL     OW41660   2.086   7.732   8.446
13218SOL    HW141661   2.105   7.709   8.538
13218SOL    HW241662   1.998   7.689   8.435
13219SOL     OW41663   1.865   7.850   8.081
13219SOL    HW141664   1.783   7.875   8.129
13219SOL    HW241665   1.837   7.768   8.038
13220SOL     OW41666   2.437   8.737   8.644
13220SOL    HW141667   2.348   8.733   8.606
13220SOL    HW241668   2.443   8.830   8.671
13221SOL     OW41669   3.393   8.978   8.154
13221SOL    HW141670   3.359   8.955   8.243
13221SOL    HW241671   3.315   8.977   8.095
13222SOL     OW41672   2.945   8.154   8.126
13222SOL    HW141673   3.012   8.224   8.120
13222SOL    HW241674   2.935   8.146   8.222
13223SOL     OW41675   3.635   8.048   7.678
13223SOL    HW141676   3.614   8.043   7.582
13223SOL    HW241677   3.575   7.981   7.714
13224SOL     OW41678   2.625   8.612   8.496
13224SOL    HW141679   2.553   8.653   8.549
13224SOL    HW241680   2.649   8.687   8.438
13225SOL     OW41681   2.745   8.193   9.246
13225SOL    HW141682   2.723   8.260   9.312
13225SOL    HW241683   2.773   8.246   9.169
13226SOL     OW41684   2.551   8.474   8.110
13226SOL    HW141685   2.616   8.443   8.175
13226SOL    HW241686   2.488   8.525   8.164
13227SOL     OW41687   2.562   8.609   9.254
13227SOL    HW141688   2.609   8.690   9.284
13227SOL    HW241689   2.477   8.645   9.222
13228SOL     OW41690   2.189   8.877   8.516
13228SOL    HW141691   2.114   8.837   8.469
13228SOL    HW241692   2.232   8.932   8.448
13229SOL     OW41693   3.327   8.948   8.829
13229SOL    HW141694   3.379   9.031   8.835
13229SOL    HW241695   3.258   8.963   8.895
13230SOL     OW41696   2.300   7.843   8.979
13230SOL    HW141697   2.376   7.786   8.960
13230SOL    HW241698   2.224   7.785   8.961
13231SOL     OW41699   3.497   7.897   8.193
13231SOL    HW141700   3.417   7.913   8.141
13231SOL    HW241701   3.491   7.967   8.259
13232SOL     OW41702   2.083   9.175   7.924
13232SOL    HW141703   2.116   9.253   7.974
13232SOL    HW241704   2.142   9.175   7.847
13233SOL     OW41705   2.984   8.796   9.117
13233SOL    HW141706   3.033   8.793   9.200
13233SOL    HW241707   2.940   8.709   9.118
13234SOL     OW41708   2.107   8.876   7.980
13234SOL    HW141709   2.101   8.971   7.995
13234SOL    HW241710   2.035   8.841   8.035
13235SOL     OW41711   2.124   8.539   8.358
13235SOL    HW141712   2.129   8.462   8.417
13235SOL    HW241713   2.067   8.601   8.408
13236SOL     OW41714   2.467   9.234   8.858
13236SOL    HW141715   2.390   9.214   8.913
13236SOL    HW241716   2.494   9.322   8.891
13237SOL     OW41717   2.434   8.435   7.562
13237SOL    HW141718   2.481   8.487   7.492
13237SOL    HW241719   2.478   8.471   7.642
13238SOL     OW41720   3.468   7.556   8.957
13238SOL    HW141721   3.459   7.626   8.890
13238SOL    HW241722   3.482   7.608   9.037
13239SOL     OW41723   1.979   8.099   8.011
13239SOL    HW141724   1.947   8.008   8.026
13239SOL    HW241725   1.973   8.139   8.099
13240SOL     OW41726   3.712   9.178   7.803
13240SOL    HW141727   3.786   9.159   7.865
13240SOL    HW241728   3.730   9.272   7.783
13241SOL     OW41729   1.888   9.040   7.561
13241SOL    HW141730   1.879   8.947   7.586
13241SOL    HW241731   1.864   9.086   7.643
13242SOL     OW41732   3.574   8.374   8.076
13242SOL    HW141733   3.639   8.329   8.020
13242SOL    HW241734   3.518   8.420   8.011
13243SOL     OW41735   3.500   8.570   7.886
13243SOL    HW141736   3.592   8.564   7.856
13243SOL    HW241737   3.507   8.638   7.957
13244SOL     OW41738   1.980   8.189   9.027
13244SOL    HW141739   2.064   8.228   9.057
13244SOL    HW241740   1.916   8.259   9.044
13245SOL     OW41741   2.460   8.859   8.210
13245SOL    HW141742   2.415   8.772   8.223
13245SOL    HW241743   2.447   8.870   8.114
13246SOL     OW41744   3.159   8.675   8.868
13246SOL    HW141745   3.182   8.601   8.810
13246SOL    HW241746   3.219   8.660   8.944
13247SOL     OW41747   2.687   7.449   7.938
13247SOL    HW141748   2.725   7.539   7.937
13247SOL    HW241749   2.592   7.468   7.951
13248SOL     OW41750   2.028   8.397   8.741
13248SOL    HW141751   2.118   8.374   8.716
13248SOL    HW241752   1.974   8.350   8.676
13249SOL     OW41753   3.411   8.412   7.639
13249SOL    HW141754   3.331   8.363   7.665
13249SOL    HW241755   3.439   8.450   7.723
13250SOL     OW41756   3.036   9.255   9.065
13250SOL    HW141757   3.047   9.322   8.995
13250SOL    HW241758   3.061   9.173   9.019
13251SOL     OW41759   2.198   7.675   9.228
13251SOL    HW141760   2.247   7.755   9.250
13251SOL    HW241761   2.108   7.697   9.258
13252SOL     OW41762   3.331   8.880   8.408
13252SOL    HW141763   3.269   8.892   8.483
13252SOL    HW241764   3.304   8.790   8.377
13253SOL     OW41765   3.516   9.191   8.057
13253SOL    HW141766   3.503   9.156   7.967
13253SOL    HW241767   3.489   9.114   8.110
13254SOL     OW41768   2.449   8.162   7.703
13254SOL    HW141769   2.451   8.252   7.669
13254SOL    HW241770   2.385   8.168   7.777
13255SOL     OW41771   3.124   7.806   8.397
13255SOL    HW141772   3.038   7.761   8.407
13255SOL    HW241773   3.185   7.745   8.443
13256SOL     OW41774   3.437   9.091   7.753
13256SOL    HW141775   3.532   9.109   7.761
13256SOL    HW241776   3.430   9.082   7.655
13257SOL     OW41777   2.668   8.076   8.895
13257SOL    HW141778   2.650   8.038   8.985
13257SOL    HW241779   2.620   8.011   8.839
13258SOL     OW41780   3.257   7.931   9.112
13258SOL    HW141781   3.263   7.989   9.189
13258SOL    HW241782   3.318   7.857   9.134
13259SOL     OW41783   2.830   8.332   9.032
13259SOL    HW141784   2.873   8.252   8.994
13259SOL    HW241785   2.783   8.367   8.953
13260SOL     OW41786   2.836   7.850   8.672
13260SOL    HW141787   2.744   7.878   8.686
13260SOL    HW241788   2.832   7.795   8.593
13261SOL     OW41789   2.905   8.136   7.857
13261SOL    HW141790   2.918   8.147   7.954
13261SOL    HW241791   2.820   8.087   7.855
13262SOL     OW41792   1.960   8.254   8.244
13262SOL    HW141793   2.035   8.265   8.305
13262SOL    HW241794   1.906   8.333   8.266
13263SOL     OW41795   1.964   9.283   9.006
13263SOL    HW141796   1.972   9.263   9.101
13263SOL    HW241797   1.874   9.254   8.986
13264SOL     OW41798   2.737   7.826   7.652
13264SOL    HW141799   2.776   7.878   7.580
13264SOL    HW241800   2.790   7.745   7.647
13265SOL     OW41801   3.576   8.027   9.286
13265SOL    HW141802   3.540   8.104   9.238
13265SOL    HW241803   3.603   7.970   9.212
13266SOL     OW41804   3.222   8.594   8.002
13266SOL    HW141805   3.301   8.583   7.948
13266SOL    HW241806   3.170   8.656   7.948
13267SOL     OW41807   2.409   7.648   8.342
13267SOL    HW141808   2.418   7.665   8.437
13267SOL    HW241809   2.393   7.736   8.306
13268SOL     OW41810   2.848   8.886   7.943
13268SOL    HW141811   2.816   8.952   7.878
13268SOL    HW241812   2.854   8.938   8.024
13269SOL     OW41813   2.210   9.268   8.303
13269SOL    HW141814   2.261   9.187   8.323
13269SOL    HW241815   2.274   9.338   8.323
13270SOL     OW41816   3.668   8.486   8.311
13270SOL    HW141817   3.625   8.460   8.227
13270SOL    HW241818   3.596   8.477   8.375
13271SOL     OW41819   3.083   9.009   8.946
13271SOL    HW141820   3.058   8.946   9.016
13271SOL    HW241821   3.045   8.966   8.868
13272SOL     OW41822   2.167   8.397   7.702
13272SOL    HW141823   2.248   8.418   7.654
13272SOL    HW241824   2.140   8.313   7.663
13273SOL     OW41825   3.334   8.204   8.153
13273SOL    HW141826   3.300   8.130   8.206
13273SOL    HW241827   3.410   8.235   8.203
13274SOL     OW41828   2.324   8.731   9.186
13274SOL    HW141829   2.285   8.730   9.095
13274SOL    HW241830   2.243   8.728   9.240
13275SOL     OW41831   2.956   9.223   7.687
13275SOL    HW141832   2.889   9.169   7.732
13275SOL    HW241833   2.968   9.175   7.603
13276SOL     OW41834   2.035   7.732   8.942
13276SOL    HW141835   1.963   7.795   8.953
13276SOL    HW241836   2.003   7.655   8.991
13277SOL     OW41837   3.490   8.810   7.541
13277SOL    HW141838   3.446   8.894   7.517
13277SOL    HW241839   3.430   8.743   7.504
13278SOL     OW41840   2.314   9.192   7.762
13278SOL    HW141841   2.362   9.236   7.835
13278SOL    HW241842   2.386   9.153   7.711
13279SOL     OW41843   3.294   7.493   7.872
13279SOL    HW141844   3.266   7.480   7.780
13279SOL    HW241845   3.264   7.584   7.888
13280SOL     OW41846   2.113   9.247   8.676
13280SOL    HW141847   2.164   9.174   8.713
13280SOL    HW241848   2.089   9.214   8.588
13281SOL     OW41849   2.821   9.147   8.334
13281SOL    HW141850   2.907   9.101   8.334
13281SOL    HW241851   2.773   9.095   8.266
13282SOL     OW41852   2.250   8.148   7.914
13282SOL    HW141853   2.274   8.055   7.937
13282SOL    HW241854   2.154   8.145   7.933
13283SOL     OW41855   3.399   7.715   9.175
13283SOL    HW141856   3.396   7.718   9.274
13283SOL    HW241857   3.340   7.640   9.158
13284SOL     OW41858   2.499   7.575   7.540
13284SOL    HW141859   2.572   7.515   7.561
13284SOL    HW241860   2.448   7.522   7.475
13285SOL     OW41861   2.627   7.708   9.177
13285SOL    HW141862   2.709   7.657   9.193
13285SOL    HW241863   2.577   7.693   9.259
13286SOL     OW41864   2.745   8.991   8.643
13286SOL    HW141865   2.734   8.967   8.550
13286SOL    HW241866   2.806   8.924   8.676
13287SOL     OW41867   3.204   8.040   8.865
13287SOL    HW141868   3.238   8.009   8.952
13287SOL    HW241869   3.250   8.126   8.856
13288SOL     OW41870   2.685   8.859   8.380
13288SOL    HW141871   2.769   8.843   8.333
13288SOL    HW241872   2.621   8.864   8.308
13289SOL     OW41873   2.798   7.978   8.359
13289SOL    HW141874   2.776   7.966   8.263
13289SOL    HW241875   2.832   7.890   8.380
13290SOL     OW41876   2.421   7.495   7.953
13290SOL    HW141877   2.345   7.505   8.012
13290SOL    HW241878   2.410   7.574   7.895
13291SOL     OW41879   3.310   8.611   7.472
13291SOL    HW141880   3.338   8.540   7.533
13291SOL    HW241881   3.222   8.635   7.506
13292SOL     OW41882   2.141   7.494   7.639
13292SOL    HW141883   2.203   7.566   7.618
13292SOL    HW241884   2.202   7.429   7.679
13293SOL     OW41885   2.784   7.697   7.936
13293SOL    HW141886   2.772   7.751   7.857
13293SOL    HW241887   2.883   7.701   7.943
13294SOL     OW41888   2.955   8.122   8.926
13294SOL    HW141889   2.896   8.045   8.915
13294SOL    HW241890   3.044   8.086   8.907
13295SOL     OW41891   3.077   9.043   8.240
13295SOL    HW141892   3.084   9.095   8.158
13295SOL    HW241893   3.161   9.061   8.283
13296SOL     OW41894   2.332   8.620   8.195
13296SOL    HW141895   2.256   8.589   8.250
13296SOL    HW241896   2.301   8.593   8.106
13297SOL     OW41897   3.124   9.261   8.045
13297SOL    HW141898   3.175   9.322   7.988
13297SOL    HW241899   3.096   9.320   8.116
13298SOL     OW41900   2.912   7.996   7.478
13298SOL    HW141901   2.865   8.079   7.458
13298SOL    HW241902   2.984   8.023   7.538
13299SOL     OW41903   1.921   8.001   8.847
13299SOL    HW141904   2.015   7.989   8.830
13299SOL    HW241905   1.922   8.080   8.904
13300SOL     OW41906   2.424   7.685   8.617
13300SOL    HW141907   2.472   7.614   8.662
13300SOL    HW241908   2.333   7.669   8.649
13301SOL     OW41909   2.738   7.905   8.113
13301SOL    HW141910   2.714   7.957   8.036
13301SOL    HW241911   2.762   7.820   8.073
13302SOL     OW41912   2.887   7.520   8.224
13302SOL    HW141913   2.857   7.502   8.134
13302SOL    HW241914   2.865   7.437   8.271
13303SOL     OW41915   3.274   8.632   8.327
13303SOL    HW141916   3.229   8.550   8.353
13303SOL    HW241917   3.270   8.625   8.230
13304SOL     OW41918   3.316   8.022   8.454
13304SOL    HW141919   3.256   7.946   8.450
13304SOL    HW241920   3.373   8.003   8.530
13305SOL     OW41921   3.719   8.261   7.835
13305SOL    HW141922   3.765   8.202   7.898
13305SOL    HW241923   3.693   8.197   7.766
13306SOL     OW41924   2.351   8.872   7.574
13306SOL    HW141925   2.267   8.858   7.622
13306SOL    HW241926   2.339   8.819   7.494
13307SOL     OW41927   3.532   8.745   8.092
13307SOL    HW141928   3.629   8.747   8.102
13307SOL    HW241929   3.503   8.832   8.123
13308SOL     OW41930   3.265   8.049   7.512
13308SOL    HW141931   3.213   8.031   7.594
13308SOL    HW241932   3.333   7.982   7.519
13309SOL     OW41933   2.375   7.677   7.762
13309SOL    HW141934   2.429   7.647   7.687
13309SOL    HW241935   2.346   7.765   7.729
13310SOL     OW41936   3.597   8.683   9.022
13310SOL    HW141937   3.687   8.645   9.019
13310SOL    HW241938   3.618   8.777   9.035
13311SOL     OW41939   2.934   8.816   8.790
13311SOL    HW141940   2.857   8.778   8.835
13311SOL    HW241941   3.008   8.765   8.831
13312SOL     OW41942   3.469   9.047   9.089
13312SOL    HW141943   3.469   9.089   9.001
13312SOL    HW241944   3.555   9.000   9.087
13313SOL     OW41945   2.980   8.675   8.539
13313SOL    HW141946   2.917   8.705   8.606
13313SOL    HW241947   2.949   8.719   8.458
13314SOL     OW41948   3.459   8.543   8.528
13314SOL    HW141949   3.475   8.605   8.602
13314SOL    HW241950   3.405   8.599   8.471
13315SOL     OW41951   2.773   7.561   8.850
13315SOL    HW141952   2.801   7.529   8.762
13315SOL    HW241953   2.856   7.598   8.884
13316SOL     OW41954   2.855   8.564   9.189
13316SOL    HW141955   2.761   8.588   9.200
13316SOL    HW241956   2.851   8.489   9.128
13317SOL     OW41957   2.582   8.513   7.780
13317SOL    HW141958   2.564   8.485   7.871
13317SOL    HW241959   2.655   8.452   7.755
13318SOL     OW41960   2.282   8.259   8.712
13318SOL    HW141961   2.356   8.259   8.777
13318SOL    HW241962   2.238   8.174   8.729
13319SOL     OW41963   3.147   7.833   8.707
13319SOL    HW141964   3.170   7.912   8.760
13319SOL    HW241965   3.059   7.855   8.673
13320SOL     OW41966   1.929   9.011   8.780
13320SOL    HW141967   1.904   9.093   8.736
13320SOL    HW241968   2.026   9.011   8.774
13321SOL     OW41969   2.234   8.553   7.953
13321SOL    HW141970   2.262   8.612   7.883
13321SOL    HW241971   2.204   8.475   7.903
13322SOL     OW41972   2.394   7.988   8.294
13322SOL    HW141973   2.420   8.052   8.224
13322SOL    HW241974   2.467   7.998   8.357
13323SOL     OW41975   3.084   8.775   7.826
13323SOL    HW141976   3.128   8.852   7.867
13323SOL    HW241977   2.993   8.785   7.860
13324SOL     OW41978   3.165   8.917   8.616
13324SOL    HW141979   3.222   8.910   8.695
13324SOL    HW241980   3.097   8.851   8.634
13325SOL     OW41981   3.450   8.062   7.914
13325SOL    HW141982   3.394   8.106   7.980
13325SOL    HW241983   3.477   8.136   7.858
13326SOL     OW41984   2.207   8.955   8.767
13326SOL    HW141985   2.194   8.921   8.676
13326SOL    HW241986   2.301   8.981   8.761
13327SOL     OW41987   2.306   8.173   9.079
13327SOL    HW141988   2.356   8.218   9.008
13327SOL    HW241989   2.335   8.081   9.067
13328SOL     OW41990   3.486   8.218   9.124
13328SOL    HW141991   3.398   8.259   9.130
13328SOL    HW241992   3.524   8.267   9.049
13329SOL     OW41993   2.856   7.564   9.209
13329SOL    HW141994   2.920   7.635   9.194
13329SOL    HW241995   2.900   7.490   9.164
13330SOL     OW41996   2.364   7.461   9.206
13330SOL    HW141997   2.321   7.404   9.140
13330SOL    HW241998   2.302   7.536   9.208
13331SOL     OW41999   2.452   8.353   8.501
13331SOL    HW142000   2.486   8.443   8.505
13331SOL    HW242001   2.392   8.347   8.577
13332SOL     OW42002   3.227   8.293   8.476
13332SOL    HW142003   3.143   8.270   8.433
13332SOL    HW242004   3.272   8.207   8.475
13333SOL     OW42005   3.089   7.984   7.712
13333SOL    HW142006   3.101   7.901   7.763
13333SOL    HW242007   3.023   8.029   7.767
13334SOL     OW42008   2.166   7.641   8.702
13334SOL    HW142009   2.115   7.668   8.781
13334SOL    HW242010   2.138   7.548   8.693
13335SOL     OW42011   1.901   8.736   8.741
13335SOL    HW142012   1.923   8.689   8.823
13335SOL    HW242013   1.902   8.830   8.766
13336SOL     OW42014   2.576   8.096   8.499
13336SOL    HW142015   2.656   8.080   8.447
13336SOL    HW242016   2.552   8.189   8.479
13337SOL     OW42017   3.622   8.398   9.294
13337SOL    HW142018   3.582   8.343   9.224
13337SOL    HW242019   3.553   8.397   9.362
13338SOL     OW42020   2.164   7.513   8.058
13338SOL    HW142021   2.141   7.606   8.081
13338SOL    HW242022   2.168   7.472   8.147
13339SOL     OW42023   3.461   7.826   7.786
13339SOL    HW142024   3.490   7.761   7.851
13339SOL    HW242025   3.449   7.905   7.843
13340SOL     OW42026   2.925   8.203   8.422
13340SOL    HW142027   2.905   8.217   8.516
13340SOL    HW242028   2.890   8.113   8.407
13341SOL     OW42029   2.840   9.014   9.152
13341SOL    HW142030   2.826   9.061   9.067
13341SOL    HW242031   2.878   8.929   9.123
13342SOL     OW42032   3.715   8.955   9.045
13342SOL    HW142033   3.748   8.978   8.957
13342SOL    HW242034   3.792   8.974   9.102
13343SOL     OW42035   2.209   8.347   9.248
13343SOL    HW142036   2.292   8.366   9.293
13343SOL    HW242037   2.235   8.271   9.191
13344SOL     OW42038   3.363   7.699   7.556
13344SOL    HW142039   3.293   7.642   7.592
13344SOL    HW242040   3.404   7.736   7.636
13345SOL     OW42041   3.142   8.290   7.473
13345SOL    HW142042   3.189   8.206   7.487
13345SOL    HW242043   3.167   8.309   7.380
13346SOL     OW42044   2.928   8.814   8.291
13346SOL    HW142045   2.942   8.738   8.232
13346SOL    HW242046   2.997   8.878   8.265
13347SOL     OW42047   2.152   8.273   8.454
13347SOL    HW142048   2.246   8.285   8.436
13347SOL    HW242049   2.148   8.178   8.473
13348SOL     OW42050   2.178   7.990   8.448
13348SOL    HW142051   2.151   7.897   8.435
13348SOL    HW242052   2.249   7.998   8.380
13349SOL     OW42053   3.020   7.805   9.153
13349SOL    HW142054   2.970   7.861   9.215
13349SOL    HW242055   3.103   7.856   9.143
13350SOL     OW42056   3.032   7.647   8.927
13350SOL    HW142057   3.029   7.706   9.005
13350SOL    HW242058   3.073   7.702   8.860
13351SOL     OW42059   1.857   8.764   7.638
13351SOL    HW142060   1.765   8.774   7.604
13351SOL    HW242061   1.855   8.675   7.677
13352SOL     OW42062   1.962   9.225   8.396
13352SOL    HW142063   1.934   9.156   8.333
13352SOL    HW242064   2.051   9.247   8.362
13353SOL     OW42065   2.347   9.048   8.375
13353SOL    HW142066   2.418   9.107   8.408
13353SOL    HW242067   2.397   8.984   8.322
13354SOL     OW42068   2.839   8.222   8.690
13354SOL    HW142069   2.894   8.190   8.763
13354SOL    HW242070   2.752   8.189   8.717
13355SOL     OW42071   1.884   7.960   8.556
13355SOL    HW142072   1.964   7.961   8.501
13355SOL    HW242073   1.921   7.970   8.645
13356SOL     OW42074   2.083   7.964   9.170
13356SOL    HW142075   2.132   7.918   9.100
13356SOL    HW242076   2.027   8.026   9.119
13357SOL     OW42077   3.249   8.363   9.098
13357SOL    HW142078   3.274   8.457   9.099
13357SOL    HW242079   3.250   8.343   9.003
13358SOL     OW42080   2.664   8.025   7.818
13358SOL    HW142081   2.678   7.952   7.755
13358SOL    HW242082   2.593   8.076   7.775
13359SOL     OW42083   3.507   8.078   8.668
13359SOL    HW142084   3.483   8.006   8.727
13359SOL    HW242085   3.587   8.044   8.624
13360SOL     OW42086   2.099   8.986   9.168
13360SOL    HW142087   2.090   9.059   9.232
13360SOL    HW242088   2.118   8.910   9.225
13361SOL     OW42089   2.551   7.923   8.707
13361SOL    HW142090   2.499   7.849   8.674
13361SOL    HW242091   2.546   7.989   8.634
13362SOL     OW42092   2.777   9.139   8.925
13362SOL    HW142093   2.770   9.106   8.834
13362SOL    HW242094   2.779   9.236   8.912
13363SOL     OW42095   2.308   7.918   7.652
13363SOL    HW142096   2.378   7.985   7.650
13363SOL    HW242097   2.229   7.974   7.647
13364SOL     OW42098   1.977   8.569   8.937
13364SOL    HW142099   1.983   8.519   9.022
13364SOL    HW242100   1.990   8.499   8.869
13365SOL     OW42101   3.180   8.475   8.676
13365SOL    HW142102   3.202   8.416   8.601
13365SOL    HW242103   3.113   8.533   8.637
13366SOL     OW42104   3.171   8.306   7.750
13366SOL    HW142105   3.093   8.266   7.793
13366SOL    HW242106   3.145   8.309   7.657
13367SOL     OW42107   3.608   9.195   8.569
13367SOL    HW142108   3.689   9.214   8.518
13367SOL    HW242109   3.601   9.097   8.556
13368SOL     OW42110   3.104   9.178   8.558
13368SOL    HW142111   3.190   9.204   8.523
13368SOL    HW242112   3.115   9.081   8.570
13369SOL     OW42113   1.964   8.705   8.484
13369SOL    HW142114   1.936   8.720   8.577
13369SOL    HW242115   1.880   8.682   8.442
13370SOL     OW42116   2.560   9.088   9.189
13370SOL    HW142117   2.517   9.172   9.168
13370SOL    HW242118   2.645   9.095   9.142
13371SOL     OW42119   3.626   7.584   7.992
13371SOL    HW142120   3.628   7.568   7.897
13371SOL    HW242121   3.582   7.503   8.026
13372SOL     OW42122   3.219   9.021   7.928
13372SOL    HW142123   3.284   9.034   7.857
13372SOL    HW242124   3.183   9.110   7.942
13373SOL     OW42125   2.011   9.241   9.277
13373SOL    HW142126   1.966   9.175   9.332
13373SOL    HW242127   2.058   9.293   9.344
13374SOL     OW42128   3.118   8.368   8.120
13374SOL    HW142129   3.198   8.312   8.126
13374SOL    HW242130   3.153   8.444   8.069
13375SOL     OW42131   2.677   8.709   8.872
13375SOL    HW142132   2.646   8.757   8.951
13375SOL    HW242133   2.605   8.731   8.810
13376SOL     OW42134   2.526   9.067   7.609
13376SOL    HW142135   2.545   9.075   7.514
13376SOL    HW242136   2.467   8.989   7.608
13377SOL     OW42137   3.479   9.168   8.843
13377SOL    HW142138   3.530   9.181   8.761
13377SOL    HW242139   3.470   9.259   8.877
13378SOL     OW42140   3.704   7.614   8.418
13378SOL    HW142141   3.722   7.525   8.382
13378SOL    HW242142   3.617   7.637   8.378
13379SOL     OW42143   2.115   7.762   8.156
13379SOL    HW142144   2.032   7.809   8.135
13379SOL    HW242145   2.117   7.765   8.252
13380SOL     OW42146   3.041   9.075   7.471
13380SOL    HW142147   3.054   8.980   7.486
13380SOL    HW242148   2.989   9.078   7.389
13381SOL     OW42149   2.687   8.444   8.831
13381SOL    HW142150   2.721   8.442   8.742
13381SOL    HW242151   2.684   8.539   8.851
13382SOL     OW42152   2.777   8.349   7.722
13382SOL    HW142153   2.851   8.390   7.674
13382SOL    HW242154   2.818   8.272   7.765
13383SOL     OW42155   3.409   9.069   7.483
13383SOL    HW142156   3.314   9.081   7.473
13383SOL    HW242157   3.439   9.074   7.389
13384SOL     OW42158   2.206   8.717   8.949
13384SOL    HW142159   2.201   8.780   8.876
13384SOL    HW242160   2.125   8.664   8.938
13385SOL     OW42161   3.470   8.761   8.715
13385SOL    HW142162   3.522   8.737   8.792
13385SOL    HW242163   3.409   8.828   8.753
13386SOL     OW42164   2.908   8.562   8.170
13386SOL    HW142165   2.835   8.510   8.206
13386SOL    HW242166   2.970   8.493   8.143
13387SOL     OW42167   2.892   7.677   8.438
13387SOL    HW142168   2.883   7.635   8.350
13387SOL    HW242169   2.894   7.599   8.496
13388SOL     OW42170   2.475   8.935   7.946
13388SOL    HW142171   2.532   8.895   7.877
13388SOL    HW242172   2.402   8.971   7.895
13389SOL     OW42173   3.571   7.819   8.824
13389SOL    HW142174   3.638   7.890   8.824
13389SOL    HW242175   3.615   7.751   8.769
13390SOL     OW42176   2.104   8.830   7.716
13390SOL    HW142177   2.008   8.811   7.708
13390SOL    HW242178   2.112   8.847   7.812
13391SOL     OW42179   1.986   8.477   9.180
13391SOL    HW142180   1.908   8.445   9.230
13391SOL    HW242181   2.060   8.425   9.218
13392SOL     OW42182   2.522   7.631   8.939
13392SOL    HW142183   2.610   7.608   8.904
13392SOL    HW242184   2.546   7.667   9.026
13393SOL     OW42185   1.959   7.810   7.489
13393SOL    HW142186   1.869   7.797   7.457
13393SOL    HW242187   1.994   7.872   7.423
13394SOL     OW42188   3.316   8.302   8.837
13394SOL    HW142189   3.263   8.359   8.778
13394SOL    HW242190   3.406   8.331   8.815
13395SOL     OW42191   1.901   7.619   7.738
13395SOL    HW142192   1.908   7.710   7.706
13395SOL    HW242193   1.984   7.580   7.702
13396SOL     OW42194   3.068   8.807   7.552
13396SOL    HW142195   2.987   8.756   7.555
13396SOL    HW242196   3.096   8.805   7.645
13397SOL     OW42197   2.483   8.266   8.886
13397SOL    HW142198   2.541   8.344   8.879
13397SOL    HW242199   2.551   8.196   8.888
13398SOL     OW42200   3.364   9.238   8.410
13398SOL    HW142201   3.404   9.284   8.335
13398SOL    HW242202   3.441   9.213   8.462
13399SOL     OW42203   2.590   7.983   9.128
13399SOL    HW142204   2.622   8.039   9.201
13399SOL    HW242205   2.604   7.892   9.159
13400SOL     OW42206   3.336   8.621   9.067
13400SOL    HW142207   3.328   8.633   9.164
13400SOL    HW242208   3.429   8.646   9.051
13401SOL     OW42209   2.237   9.186   9.009
13401SOL    HW142210   2.152   9.230   8.994
13401SOL    HW242211   2.208   9.097   9.034
13402SOL     OW42212   3.567   8.343   8.697
13402SOL    HW142213   3.541   8.252   8.673
13402SOL    HW242214   3.528   8.396   8.625
13403SOL     OW42215   2.443   8.198   8.120
13403SOL    HW142216   2.482   8.285   8.105
13403SOL    HW242217   2.377   8.192   8.048
13404SOL     OW42218   3.629   7.828   9.082
13404SOL    HW142219   3.597   7.833   8.990
13404SOL    HW242220   3.556   7.780   9.126
13405SOL     OW42221   3.600   8.395   8.956
13405SOL    HW142222   3.604   8.492   8.959
13405SOL    HW242223   3.606   8.377   8.860
13406SOL     OW42224   2.712   8.814   7.472
13406SOL    HW142225   2.685   8.833   7.563
13406SOL    HW242226   2.743   8.900   7.438
13407SOL     OW42227   2.530   9.244   8.402
13407SOL    HW142228   2.509   9.334   8.373
13407SOL    HW242229   2.623   9.233   8.379
13408SOL     OW42230   2.731   8.388   8.305
13408SOL    HW142231   2.790   8.320   8.341
13408SOL    HW242232   2.717   8.446   8.381
13409SOL     OW42233   2.962   8.461   7.564
13409SOL    HW142234   2.921   8.502   7.486
13409SOL    HW242235   3.022   8.397   7.521
13410SOL     OW42236   3.727   8.999   8.270
13410SOL    HW142237   3.632   8.987   8.281
13410SOL    HW242238   3.762   8.943   8.341
13411SOL     OW42239   2.089   8.766   9.331
13411SOL    HW142240   2.054   8.687   9.286
13411SOL    HW242241   2.007   8.802   9.369
13412SOL     OW42242   1.954   8.683   8.098
13412SOL    HW142243   1.955   8.633   8.180
13412SOL    HW242244   2.036   8.655   8.056
13413SOL     OW42245   2.536   8.848   9.061
13413SOL    HW142246   2.462   8.798   9.098
13413SOL    HW242247   2.529   8.932   9.110
13414SOL     OW42248   3.681   7.613   8.679
13414SOL    HW142249   3.681   7.517   8.679
13414SOL    HW242250   3.689   7.629   8.582
13415SOL     OW42251   2.287   7.888   7.982
13415SOL    HW142252   2.329   7.819   7.929
13415SOL    HW242253   2.253   7.841   8.060
13416SOL     OW42254   3.583   8.935   8.529
13416SOL    HW142255   3.499   8.910   8.487
13416SOL    HW242256   3.582   8.875   8.605
13417SOL     OW42257   2.187   7.977   8.731
13417SOL    HW142258   2.261   7.937   8.780
13417SOL    HW242259   2.209   7.957   8.638
13418SOL     OW42260   2.684   9.039   8.125
13418SOL    HW142261   2.681   9.072   8.034
13418SOL    HW242262   2.597   8.996   8.133
13419SOL     OW42263   3.293   7.675   8.549
13419SOL    HW142264   3.334   7.602   8.598
13419SOL    HW242265   3.246   7.725   8.619
13420SOL     OW42266   2.873   7.445   8.605
13420SOL    HW142267   2.821   7.368   8.577
13420SOL    HW242268   2.964   7.407   8.601
13421SOL     OW42269   2.648   8.792   7.760
13421SOL    HW142270   2.620   8.699   7.755
13421SOL    HW242271   2.719   8.786   7.826
13422SOL     OW42272   2.469   9.004   8.717
13422SOL    HW142273   2.471   9.090   8.764
13422SOL    HW242274   2.563   8.999   8.691
13423SOL     OW42275   3.184   7.477   7.614
13423SOL    HW142276   3.190   7.412   7.542
13423SOL    HW242277   3.093   7.461   7.647
13424SOL     OW42278   3.201   7.947   8.183
13424SOL    HW142279   3.150   7.912   8.108
13424SOL    HW242280   3.162   7.899   8.259
13425SOL     OW42281   3.459   7.661   8.319
13425SOL    HW142282   3.386   7.670   8.383
13425SOL    HW242283   3.455   7.743   8.267
13426SOL     OW42284   1.908   8.514   7.756
13426SOL    HW142285   2.001   8.503   7.729
13426SOL    HW242286   1.886   8.423   7.783
13427SOL     OW42287   2.738   9.091   7.781
13427SOL    HW142288   2.662   9.077   7.721
13427SOL    HW242289   2.717   9.174   7.828
13428SOL     OW42290   2.097   8.099   9.438
13428SOL    HW142291   2.002   8.092   9.459
13428SOL    HW242292   2.102   8.065   9.347
13429SOL     OW42293   2.092   7.722  10.279
13429SOL    HW142294   2.111   7.705  10.373
13429SOL    HW242295   2.002   7.684  10.271
13430SOL     OW42296   1.860   7.841   9.929
13430SOL    HW142297   1.781   7.860   9.982
13430SOL    HW242298   1.830   7.763   9.880
13431SOL     OW42299   2.425   8.747  10.462
13431SOL    HW142300   2.330   8.733  10.449
13431SOL    HW242301   2.427   8.831  10.510
13432SOL     OW42302   3.424   8.972  10.024
13432SOL    HW142303   3.386   8.942  10.109
13432SOL    HW242304   3.350   8.965   9.961
13433SOL     OW42305   2.972   8.134  10.002
13433SOL    HW142306   3.014   8.221   9.987
13433SOL    HW242307   2.929   8.149  10.088
13434SOL     OW42308   3.632   8.051   9.548
13434SOL    HW142309   3.611   8.043   9.453
13434SOL    HW242310   3.577   7.981   9.586
13435SOL     OW42311   2.621   8.605  10.349
13435SOL    HW142312   2.546   8.648  10.395
13435SOL    HW242313   2.648   8.678  10.291
13436SOL     OW42314   2.714   8.208   0.025
13436SOL    HW142315   2.712   8.288   0.079
13436SOL    HW242316   2.749   8.243  11.042
13437SOL     OW42317   2.554   8.477   9.974
13437SOL    HW142318   2.619   8.453  10.044
13437SOL    HW242319   2.488   8.527  10.024
13438SOL     OW42320   2.176   8.889  10.389
13438SOL    HW142321   2.106   8.843  10.340
13438SOL    HW242322   2.229   8.933  10.319
13439SOL     OW42323   3.333   8.948  10.667
13439SOL    HW142324   3.391   9.027  10.674
13439SOL    HW242325   3.263   8.970  10.730
13440SOL     OW42326   2.313   7.834  10.782
13440SOL    HW142327   2.387   7.770  10.787
13440SOL    HW242328   2.234   7.779  10.798
13441SOL     OW42329   3.483   7.896  10.061
13441SOL    HW142330   3.421   7.935   9.997
13441SOL    HW242331   3.495   7.967  10.124
13442SOL     OW42332   2.088   9.163   9.786
13442SOL    HW142333   2.115   9.242   9.838
13442SOL    HW242334   2.141   9.173   9.706
13443SOL     OW42335   2.095   8.877   9.823
13443SOL    HW142336   2.103   8.973   9.835
13443SOL    HW242337   2.050   8.851   9.906
13444SOL     OW42338   2.133   8.524  10.185
13444SOL    HW142339   2.138   8.444  10.240
13444SOL    HW242340   2.078   8.583  10.240
13445SOL     OW42341   2.456   9.248  10.722
13445SOL    HW142342   2.389   9.224  10.789
13445SOL    HW242343   2.480   9.338  10.748
13446SOL     OW42344   2.427   8.447   9.424
13446SOL    HW142345   2.479   8.492   9.355
13446SOL    HW242346   2.474   8.476   9.505
13447SOL     OW42347   3.453   7.551  10.777
13447SOL    HW142348   3.451   7.642  10.746
13447SOL    HW242349   3.449   7.560  10.873
13448SOL     OW42350   1.974   8.096   9.871
13448SOL    HW142351   1.943   8.005   9.883
13448SOL    HW242352   1.968   8.133   9.962
13449SOL     OW42353   3.711   9.179   9.653
13449SOL    HW142354   3.784   9.162   9.717
13449SOL    HW242355   3.727   9.272   9.632
13450SOL     OW42356   1.925   9.041   9.440
13450SOL    HW142357   1.882   8.958   9.461
13450SOL    HW242358   1.894   9.098   9.513
13451SOL     OW42359   3.536   8.351   9.932
13451SOL    HW142360   3.616   8.314   9.892
13451SOL    HW242361   3.509   8.418   9.866
13452SOL     OW42362   3.505   8.558   9.762
13452SOL    HW142363   3.595   8.558   9.725
13452SOL    HW242364   3.513   8.626   9.832
13453SOL     OW42365   1.977   8.190  10.902
13453SOL    HW142366   2.063   8.219  10.935
13453SOL    HW242367   1.929   8.275  10.897
13454SOL     OW42368   2.457   8.859  10.062
13454SOL    HW142369   2.419   8.770  10.079
13454SOL    HW242370   2.443   8.865   9.965
13455SOL     OW42371   3.157   8.696  10.742
13455SOL    HW142372   3.180   8.626  10.677
13455SOL    HW242373   3.212   8.673  10.818
13456SOL     OW42374   2.698   7.438   9.820
13456SOL    HW142375   2.732   7.529   9.811
13456SOL    HW242376   2.602   7.454   9.827
13457SOL     OW42377   2.047   8.392  10.620
13457SOL    HW142378   2.135   8.358  10.597
13457SOL    HW242379   1.987   8.337  10.569
13458SOL     OW42380   3.409   8.403   9.483
13458SOL    HW142381   3.330   8.358   9.520
13458SOL    HW242382   3.450   8.437   9.564
13459SOL     OW42383   3.100   9.251  10.914
13459SOL    HW142384   3.067   9.313  10.848
13459SOL    HW242385   3.098   9.167  10.865
13460SOL     OW42386   2.203   7.675   0.009
13460SOL    HW142387   2.271   7.741   0.029
13460SOL    HW242388   2.123   7.731   0.008
13461SOL     OW42389   3.334   8.866  10.265
13461SOL    HW142390   3.271   8.885  10.338
13461SOL    HW242391   3.307   8.776  10.239
13462SOL     OW42392   3.522   9.187   9.906
13462SOL    HW142393   3.508   9.146   9.820
13462SOL    HW242394   3.499   9.114   9.966
13463SOL     OW42395   2.427   8.162   9.576
13463SOL    HW142396   2.446   8.252   9.548
13463SOL    HW242397   2.349   8.173   9.634
13464SOL     OW42398   3.148   7.794  10.233
13464SOL    HW142399   3.059   7.755  10.241
13464SOL    HW242400   3.197   7.750  10.305
13465SOL     OW42401   3.441   9.087   9.620
13465SOL    HW142402   3.536   9.109   9.623
13465SOL    HW242403   3.429   9.081   9.523
13466SOL     OW42404   2.674   8.062  10.781
13466SOL    HW142405   2.649   8.030  10.870
13466SOL    HW242406   2.629   7.999  10.722
13467SOL     OW42407   2.816   8.311  10.895
13467SOL    HW142408   2.866   8.245  10.843
13467SOL    HW242409   2.773   8.365  10.826
13468SOL     OW42410   2.847   7.837  10.559
13468SOL    HW142411   2.757   7.856  10.589
13468SOL    HW242412   2.832   7.791  10.476
13469SOL     OW42413   2.904   8.130   9.717
13469SOL    HW142414   2.919   8.145   9.812
13469SOL    HW242415   2.816   8.085   9.718
13470SOL     OW42416   1.961   8.252  10.112
13470SOL    HW142417   2.031   8.256  10.179
13470SOL    HW242418   1.921   8.340  10.119
13471SOL     OW42419   1.972   9.294  10.868
13471SOL    HW142420   1.976   9.242  10.950
13471SOL    HW242421   1.880   9.284  10.841
13472SOL     OW42422   2.737   7.832   9.517
13472SOL    HW142423   2.785   7.886   9.452
13472SOL    HW242424   2.765   7.744   9.492
13473SOL     OW42425   3.220   8.594   9.876
13473SOL    HW142426   3.295   8.584   9.816
13473SOL    HW242427   3.166   8.659   9.828
13474SOL     OW42428   2.430   7.635  10.199
13474SOL    HW142429   2.431   7.658  10.294
13474SOL    HW242430   2.414   7.721  10.157
13475SOL     OW42431   2.853   8.896   9.783
13475SOL    HW142432   2.803   8.956   9.724
13475SOL    HW242433   2.857   8.947   9.865
13476SOL     OW42434   2.200   9.261  10.163
13476SOL    HW142435   2.248   9.178  10.183
13476SOL    HW242436   2.268   9.328  10.178
13477SOL     OW42437   3.680   8.485  10.165
13477SOL    HW142438   3.615   8.482  10.094
13477SOL    HW242439   3.624   8.490  10.244
13478SOL     OW42440   3.100   9.012  10.796
13478SOL    HW142441   3.081   8.947  10.864
13478SOL    HW242442   3.033   8.988  10.730
13479SOL     OW42443   2.171   8.388   9.552
13479SOL    HW142444   2.255   8.402   9.505
13479SOL    HW242445   2.139   8.306   9.509
13480SOL     OW42446   3.332   8.214  10.039
13480SOL    HW142447   3.345   8.182  10.129
13480SOL    HW242448   3.416   8.261  10.020
13481SOL     OW42449   2.336   8.715  11.042
13481SOL    HW142450   2.304   8.727  10.950
13481SOL    HW242451   2.280   8.642  11.071
13482SOL     OW42452   2.953   9.225   9.552
13482SOL    HW142453   2.886   9.172   9.599
13482SOL    HW242454   2.965   9.174   9.469
13483SOL     OW42455   2.043   7.733  10.786
13483SOL    HW142456   1.976   7.798  10.811
13483SOL    HW242457   2.020   7.656  10.842
13484SOL     OW42458   3.482   8.808   9.405
13484SOL    HW142459   3.440   8.892   9.379
13484SOL    HW242460   3.422   8.741   9.367
13485SOL     OW42461   2.321   9.187   9.627
13485SOL    HW142462   2.366   9.243   9.692
13485SOL    HW242463   2.394   9.161   9.568
13486SOL     OW42464   3.242   7.579   9.751
13486SOL    HW142465   3.231   7.532   9.667
13486SOL    HW242466   3.339   7.590   9.756
13487SOL     OW42467   2.101   9.245  10.541
13487SOL    HW142468   2.168   9.185  10.577
13487SOL    HW242469   2.086   9.210  10.453
13488SOL     OW42470   2.821   9.164  10.181
13488SOL    HW142471   2.900   9.109  10.189
13488SOL    HW242472   2.770   9.114  10.115
13489SOL     OW42473   2.234   8.153   9.775
13489SOL    HW142474   2.265   8.062   9.793
13489SOL    HW242475   2.139   8.144   9.793
13490SOL     OW42476   2.495   7.582   9.404
13490SOL    HW142477   2.561   7.519   9.435
13490SOL    HW242478   2.445   7.529   9.338
13491SOL     OW42479   2.634   7.688  11.021
13491SOL    HW142480   2.709   7.666  11.078
13491SOL    HW242481   2.581   7.745  11.078
13492SOL     OW42482   2.762   8.990  10.505
13492SOL    HW142483   2.751   8.948  10.418
13492SOL    HW242484   2.827   8.934  10.549
13493SOL     OW42485   3.208   8.036  10.725
13493SOL    HW142486   3.276   8.002  10.785
13493SOL    HW242487   3.241   8.127  10.709
13494SOL     OW42488   2.673   8.846  10.240
13494SOL    HW142489   2.761   8.841  10.198
13494SOL    HW242490   2.613   8.856  10.165
13495SOL     OW42491   2.809   7.976  10.219
13495SOL    HW142492   2.780   7.967  10.125
13495SOL    HW242493   2.830   7.883  10.240
13496SOL     OW42494   2.430   7.496   9.816
13496SOL    HW142495   2.350   7.506   9.872
13496SOL    HW242496   2.420   7.573   9.757
13497SOL     OW42497   3.307   8.618   9.331
13497SOL    HW142498   3.336   8.544   9.386
13497SOL    HW242499   3.219   8.639   9.365
13498SOL     OW42500   2.138   7.494   9.502
13498SOL    HW142501   2.196   7.568   9.480
13498SOL    HW242502   2.202   7.429   9.538
13499SOL     OW42503   2.793   7.692   9.810
13499SOL    HW142504   2.763   7.741   9.733
13499SOL    HW242505   2.888   7.715   9.810
13500SOL     OW42506   2.960   8.130  10.753
13500SOL    HW142507   2.901   8.053  10.758
13500SOL    HW242508   3.049   8.090  10.750
13501SOL     OW42509   3.080   9.032  10.108
13501SOL    HW142510   3.095   9.082  10.027
13501SOL    HW242511   3.156   9.056  10.162
13502SOL     OW42512   2.331   8.618  10.045
13502SOL    HW142513   2.260   8.585  10.104
13502SOL    HW242514   2.293   8.597   9.958
13503SOL     OW42515   3.117   9.259   9.917
13503SOL    HW142516   3.164   9.330   9.868
13503SOL    HW242517   3.076   9.309   9.989
13504SOL     OW42518   2.910   7.984   9.341
13504SOL    HW142519   2.862   8.063   9.310
13504SOL    HW242520   2.986   8.021   9.390
13505SOL     OW42521   1.945   8.002  10.713
13505SOL    HW142522   2.039   7.998  10.689
13505SOL    HW242523   1.944   8.080  10.772
13506SOL     OW42524   2.425   7.677  10.471
13506SOL    HW142525   2.465   7.605  10.522
13506SOL    HW242526   2.332   7.673  10.500
13507SOL     OW42527   2.728   7.923   9.976
13507SOL    HW142528   2.675   7.968   9.909
13507SOL    HW242529   2.741   7.835   9.938
13508SOL     OW42530   2.932   7.517  10.078
13508SOL    HW142531   2.879   7.524   9.997
13508SOL    HW242532   2.890   7.441  10.123
13509SOL     OW42533   3.278   8.621  10.194
13509SOL    HW142534   3.210   8.555  10.215
13509SOL    HW242535   3.280   8.617  10.097
13510SOL     OW42536   3.335   8.050  10.288
13510SOL    HW142537   3.297   7.961  10.286
13510SOL    HW242538   3.400   8.044  10.361
13511SOL     OW42539   3.701   8.255   9.706
13511SOL    HW142540   3.759   8.203   9.766
13511SOL    HW242541   3.686   8.192   9.633
13512SOL     OW42542   2.356   8.873   9.423
13512SOL    HW142543   2.268   8.856   9.457
13512SOL    HW242544   2.356   8.822   9.341
13513SOL     OW42545   3.544   8.729   9.967
13513SOL    HW142546   3.641   8.735   9.977
13513SOL    HW242547   3.512   8.818   9.989
13514SOL     OW42548   3.257   8.046   9.372
13514SOL    HW142549   3.211   8.013   9.452
13514SOL    HW242550   3.348   8.018   9.390
13515SOL     OW42551   2.387   7.687   9.628
13515SOL    HW142552   2.429   7.655   9.546
13515SOL    HW242553   2.351   7.772   9.597
13516SOL     OW42554   3.625   8.678  10.868
13516SOL    HW142555   3.717   8.656  10.887
13516SOL    HW242556   3.621   8.771  10.897
13517SOL     OW42557   2.917   8.836  10.683
13517SOL    HW142558   2.844   8.781  10.715
13517SOL    HW242559   2.993   8.775  10.692
13518SOL     OW42560   2.976   8.686  10.422
13518SOL    HW142561   2.888   8.685  10.459
13518SOL    HW242562   2.962   8.730  10.336
13519SOL     OW42563   3.488   8.550  10.383
13519SOL    HW142564   3.495   8.610  10.460
13519SOL    HW242565   3.419   8.594  10.332
13520SOL     OW42566   2.763   7.566  10.687
13520SOL    HW142567   2.804   7.534  10.605
13520SOL    HW242568   2.842   7.595  10.738
13521SOL     OW42569   2.569   8.505   9.657
13521SOL    HW142570   2.569   8.487   9.752
13521SOL    HW242571   2.646   8.452   9.627
13522SOL     OW42572   2.292   8.264  10.584
13522SOL    HW142573   2.360   8.268  10.655
13522SOL    HW242574   2.263   8.171  10.588
13523SOL     OW42575   3.128   7.815  10.587
13523SOL    HW142576   3.151   7.899  10.632
13523SOL    HW242577   3.041   7.835  10.548
13524SOL     OW42578   1.943   9.020  10.645
13524SOL    HW142579   1.935   9.106  10.602
13524SOL    HW242580   2.039   9.010  10.656
13525SOL     OW42581   2.210   8.584   9.786
13525SOL    HW142582   2.301   8.599   9.756
13525SOL    HW242583   2.195   8.490   9.766
13526SOL     OW42584   2.399   7.985  10.152
13526SOL    HW142585   2.428   8.051  10.086
13526SOL    HW242586   2.465   7.998  10.222
13527SOL     OW42587   3.085   8.784   9.709
13527SOL    HW142588   3.127   8.865   9.743
13527SOL    HW242589   2.992   8.799   9.736
13528SOL     OW42590   3.154   8.904  10.468
13528SOL    HW142591   3.212   8.904  10.547
13528SOL    HW242592   3.093   8.831  10.484
13529SOL     OW42593   3.447   8.066   9.795
13529SOL    HW142594   3.394   8.125   9.849
13529SOL    HW242595   3.476   8.124   9.723
13530SOL     OW42596   2.208   8.950  10.641
13530SOL    HW142597   2.195   8.925  10.547
13530SOL    HW242598   2.304   8.968  10.643
13531SOL     OW42599   2.313   8.160  10.933
13531SOL    HW142600   2.375   8.204  10.872
13531SOL    HW242601   2.318   8.068  10.905
13532SOL     OW42602   3.474   8.206  10.984
13532SOL    HW142603   3.396   8.258  10.967
13532SOL    HW242604   3.542   8.260  10.941
13533SOL     OW42605   2.417   8.341  10.350
13533SOL    HW142606   2.468   8.423  10.355
13533SOL    HW242607   2.389   8.326  10.442
13534SOL     OW42608   3.184   8.278  10.368
13534SOL    HW142609   3.114   8.264  10.303
13534SOL    HW242610   3.242   8.202  10.353
13535SOL     OW42611   3.088   7.976   9.580
13535SOL    HW142612   3.092   7.900   9.641
13535SOL    HW242613   3.020   8.031   9.623
13536SOL     OW42614   2.146   7.657  10.543
13536SOL    HW142615   2.106   7.687  10.627
13536SOL    HW242616   2.126   7.562  10.546
13537SOL     OW42617   1.910   8.736  10.594
13537SOL    HW142618   1.941   8.687  10.673
13537SOL    HW242619   1.910   8.828  10.624
13538SOL     OW42620   2.574   8.089  10.346
13538SOL    HW142621   2.656   8.083  10.294
13538SOL    HW242622   2.535   8.174  10.320
13539SOL     OW42623   2.183   7.521   9.917
13539SOL    HW142624   2.145   7.608   9.940
13539SOL    HW242625   2.179   7.474  10.002
13540SOL     OW42626   3.463   7.837   9.656
13540SOL    HW142627   3.490   7.764   9.715
13540SOL    HW242628   3.454   7.911   9.719
13541SOL     OW42629   2.906   8.216  10.271
13541SOL    HW142630   2.893   8.234  10.366
13541SOL    HW242631   2.884   8.121  10.267
13542SOL     OW42632   2.855   8.991  10.967
13542SOL    HW142633   2.841   9.066  10.905
13542SOL    HW242634   2.819   8.918  10.916
13543SOL     OW42635   3.719   8.942  10.892
13543SOL    HW142636   3.735   8.972  10.801
13543SOL    HW242637   3.802   8.965  10.936
13544SOL     OW42638   2.236   8.363  11.081
13544SOL    HW142639   2.315   8.370   0.035
13544SOL    HW242640   2.259   8.284  11.026
13545SOL     OW42641   3.367   7.698   9.437
13545SOL    HW142642   3.296   7.643   9.473
13545SOL    HW242643   3.406   7.741   9.515
13546SOL     OW42644   3.129   8.285   9.325
13546SOL    HW142645   3.173   8.199   9.340
13546SOL    HW242646   3.168   8.312   9.239
13547SOL     OW42647   2.936   8.808  10.168
13547SOL    HW142648   2.941   8.737  10.101
13547SOL    HW242649   2.997   8.876  10.135
13548SOL     OW42650   2.151   8.273  10.310
13548SOL    HW142651   2.246   8.291  10.313
13548SOL    HW242652   2.148   8.179  10.335
13549SOL     OW42653   2.181   7.974  10.308
13549SOL    HW142654   2.145   7.887  10.283
13549SOL    HW242655   2.254   7.983  10.244
13550SOL     OW42656   2.999   7.657  10.787
13550SOL    HW142657   3.038   7.717  10.851
13550SOL    HW242658   3.032   7.693  10.703
13551SOL     OW42659   1.867   8.765   9.511
13551SOL    HW142660   1.780   8.794   9.475
13551SOL    HW242661   1.846   8.671   9.528
13552SOL     OW42662   1.950   9.220  10.250
13552SOL    HW142663   1.918   9.146  10.194
13552SOL    HW242664   2.040   9.235  10.215
13553SOL     OW42665   2.349   9.034  10.237
13553SOL    HW142666   2.421   9.101  10.243
13553SOL    HW242667   2.393   8.965  10.185
13554SOL     OW42668   2.842   8.239  10.537
13554SOL    HW142669   2.906   8.207  10.603
13554SOL    HW242670   2.761   8.196  10.567
13555SOL     OW42671   1.893   7.954  10.437
13555SOL    HW142672   1.973   7.964  10.383
13555SOL    HW242673   1.929   7.943  10.526
13556SOL     OW42674   2.654   8.025   9.693
13556SOL    HW142675   2.672   7.961   9.621
13556SOL    HW242676   2.573   8.069   9.663
13557SOL     OW42677   3.518   8.064  10.499
13557SOL    HW142678   3.502   7.992  10.560
13557SOL    HW242679   3.602   8.037  10.457
13558SOL     OW42680   2.100   8.998  11.030
13558SOL    HW142681   2.047   9.026   0.006
13558SOL    HW242682   2.148   8.922  11.065
13559SOL     OW42683   2.560   7.923  10.580
13559SOL    HW142684   2.504   7.850  10.550
13559SOL    HW242685   2.553   7.987  10.506
13560SOL     OW42686   2.809   9.146  10.750
13560SOL    HW142687   2.782   9.114  10.663
13560SOL    HW242688   2.780   9.239  10.750
13561SOL     OW42689   2.294   7.919   9.510
13561SOL    HW142690   2.360   7.989   9.517
13561SOL    HW242691   2.212   7.972   9.497
13562SOL     OW42692   2.020   8.596  10.794
13562SOL    HW142693   2.013   8.542  10.876
13562SOL    HW242694   2.033   8.526  10.726
13563SOL     OW42695   3.170   8.498  10.541
13563SOL    HW142696   3.183   8.425  10.477
13563SOL    HW242697   3.102   8.552  10.498
13564SOL     OW42698   3.167   8.314   9.594
13564SOL    HW142699   3.087   8.282   9.637
13564SOL    HW242700   3.143   8.314   9.499
13565SOL     OW42701   3.622   9.197  10.437
13565SOL    HW142702   3.691   9.215  10.371
13565SOL    HW242703   3.612   9.099  10.429
13566SOL     OW42704   3.106   9.170  10.444
13566SOL    HW142705   3.195   9.191  10.413
13566SOL    HW242706   3.110   9.073  10.452
13567SOL     OW42707   1.976   8.698  10.337
13567SOL    HW142708   1.953   8.714  10.431
13567SOL    HW242709   1.892   8.665  10.302
13568SOL     OW42710   3.537   7.605   9.795
13568SOL    HW142711   3.617   7.592   9.742
13568SOL    HW242712   3.534   7.526   9.852
13569SOL     OW42713   3.229   9.031   9.801
13569SOL    HW142714   3.289   9.046   9.726
13569SOL    HW242715   3.185   9.117   9.812
13570SOL     OW42716   3.111   8.369   9.991
13570SOL    HW142717   3.193   8.317  10.005
13570SOL    HW242718   3.146   8.443   9.937
13571SOL     OW42719   2.675   8.705  10.748
13571SOL    HW142720   2.646   8.740  10.835
13571SOL    HW242721   2.601   8.733  10.691
13572SOL     OW42722   2.529   9.073   9.465
13572SOL    HW142723   2.551   9.082   9.370
13572SOL    HW242724   2.471   8.994   9.460
13573SOL     OW42725   3.484   9.162  10.680
13573SOL    HW142726   3.536   9.178  10.600
13573SOL    HW242727   3.475   9.251  10.719
13574SOL     OW42728   3.714   7.619  10.266
13574SOL    HW142729   3.730   7.526  10.242
13574SOL    HW242730   3.622   7.635  10.236
13575SOL     OW42731   2.111   7.765  10.004
13575SOL    HW142732   2.021   7.798   9.989
13575SOL    HW242733   2.117   7.763  10.101
13576SOL     OW42734   3.037   9.079   9.338
13576SOL    HW142735   3.052   8.983   9.352
13576SOL    HW242736   2.980   9.081   9.259
13577SOL     OW42737   2.684   8.437  10.701
13577SOL    HW142738   2.726   8.425  10.615
13577SOL    HW242739   2.696   8.533  10.718
13578SOL     OW42740   2.772   8.357   9.581
13578SOL    HW142741   2.847   8.400   9.535
13578SOL    HW242742   2.812   8.278   9.618
13579SOL     OW42743   3.408   9.071   9.346
13579SOL    HW142744   3.313   9.083   9.341
13579SOL    HW242745   3.433   9.067   9.251
13580SOL     OW42746   2.239   8.742  10.804
13580SOL    HW142747   2.214   8.813  10.741
13580SOL    HW242748   2.158   8.687  10.802
13581SOL     OW42749   3.483   8.750  10.580
13581SOL    HW142750   3.528   8.723  10.661
13581SOL    HW242751   3.421   8.818  10.615
13582SOL     OW42752   2.897   8.572  10.016
13582SOL    HW142753   2.826   8.520  10.058
13582SOL    HW242754   2.963   8.503   9.998
13583SOL     OW42755   2.893   7.683  10.295
13583SOL    HW142756   2.894   7.632  10.212
13583SOL    HW242757   2.896   7.612  10.361
13584SOL     OW42758   2.454   8.907   9.793
13584SOL    HW142759   2.523   8.888   9.728
13584SOL    HW242760   2.402   8.976   9.750
13585SOL     OW42761   3.562   7.834  10.707
13585SOL    HW142762   3.627   7.906  10.704
13585SOL    HW242763   3.600   7.772  10.641
13586SOL     OW42764   1.997   8.459  11.018
13586SOL    HW142765   1.926   8.433  11.077
13586SOL    HW242766   2.077   8.421  11.059
13587SOL     OW42767   2.524   7.646  10.772
13587SOL    HW142768   2.611   7.628  10.730
13587SOL    HW242769   2.552   7.664  10.863
13588SOL     OW42770   1.965   7.774   9.324
13588SOL    HW142771   1.869   7.778   9.317
13588SOL    HW242772   1.991   7.854   9.276
13589SOL     OW42773   3.296   8.292  10.716
13589SOL    HW142774   3.242   8.357  10.670
13589SOL    HW242775   3.385   8.318  10.687
13590SOL     OW42776   1.912   7.612   9.615
13590SOL    HW142777   1.906   7.699   9.574
13590SOL    HW242778   1.995   7.578   9.577
13591SOL     OW42779   3.067   8.803   9.430
13591SOL    HW142780   2.989   8.747   9.436
13591SOL    HW242781   3.094   8.807   9.524
13592SOL     OW42782   2.494   8.262  10.762
13592SOL    HW142783   2.556   8.336  10.745
13592SOL    HW242784   2.557   8.188  10.772
13593SOL     OW42785   3.381   9.208  10.294
13593SOL    HW142786   3.414   9.250  10.214
13593SOL    HW242787   3.461   9.203  10.350
13594SOL     OW42788   2.595   7.989  11.036
13594SOL    HW142789   2.623   8.070  11.084
13594SOL    HW242790   2.670   7.930  11.049
13595SOL     OW42791   2.239   9.174  10.875
13595SOL    HW142792   2.165   9.233  10.856
13595SOL    HW242793   2.198   9.109  10.935
13596SOL     OW42794   3.539   8.336  10.577
13596SOL    HW142795   3.532   8.244  10.546
13596SOL    HW242796   3.518   8.387  10.497
13597SOL     OW42797   3.057   7.776   9.771
13597SOL    HW142798   3.123   7.706   9.763
13597SOL    HW242799   3.088   7.825   9.850
13598SOL     OW42800   2.467   8.193   9.966
13598SOL    HW142801   2.491   8.286   9.961
13598SOL    HW242802   2.394   8.187   9.902
13599SOL     OW42803   3.634   7.742  10.954
13599SOL    HW142804   3.605   7.769  10.865
13599SOL    HW242805   3.556   7.761  11.007
13600SOL     OW42806   3.615   8.397  10.830
13600SOL    HW142807   3.613   8.494  10.835
13600SOL    HW242808   3.601   8.380  10.735
13601SOL     OW42809   2.713   8.813   9.345
13601SOL    HW142810   2.693   8.833   9.438
13601SOL    HW242811   2.740   8.898   9.308
13602SOL     OW42812   2.530   9.224  10.231
13602SOL    HW142813   2.510   9.319  10.222
13602SOL    HW242814   2.626   9.221  10.220
13603SOL     OW42815   2.734   8.408  10.162
13603SOL    HW142816   2.788   8.332  10.189
13603SOL    HW242817   2.717   8.454  10.246
13604SOL     OW42818   2.958   8.469   9.418
13604SOL    HW142819   2.921   8.515   9.341
13604SOL    HW242820   3.009   8.399   9.373
13605SOL     OW42821   3.703   8.995  10.169
13605SOL    HW142822   3.624   8.987  10.115
13605SOL    HW242823   3.678   8.949  10.251
13606SOL     OW42824   1.960   8.694   9.993
13606SOL    HW142825   1.909   8.638  10.053
13606SOL    HW242826   2.046   8.649   9.992
13607SOL     OW42827   2.546   8.858  10.936
13607SOL    HW142828   2.478   8.799  10.974
13607SOL    HW242829   2.497   8.940  10.925
13608SOL     OW42830   3.656   7.657  10.530
13608SOL    HW142831   3.691   7.570  10.553
13608SOL    HW242832   3.679   7.663  10.436
13609SOL     OW42833   2.292   7.897   9.832
13609SOL    HW142834   2.334   7.825   9.782
13609SOL    HW242835   2.243   7.849   9.901
13610SOL     OW42836   3.586   8.936  10.410
13610SOL    HW142837   3.500   8.909  10.372
13610SOL    HW242838   3.588   8.879  10.489
13611SOL     OW42839   2.215   7.994  10.590
13611SOL    HW142840   2.264   7.932  10.648
13611SOL    HW242841   2.215   7.950  10.504
13612SOL     OW42842   2.688   9.046   9.983
13612SOL    HW142843   2.674   9.103   9.906
13612SOL    HW242844   2.603   9.001   9.995
13613SOL     OW42845   3.294   7.683  10.434
13613SOL    HW142846   3.335   7.618  10.491
13613SOL    HW242847   3.237   7.733  10.497
13614SOL     OW42848   2.887   7.468  10.466
13614SOL    HW142849   2.824   7.402  10.433
13614SOL    HW242850   2.970   7.416  10.467
13615SOL     OW42851   2.647   8.794   9.625
13615SOL    HW142852   2.612   8.703   9.622
13615SOL    HW242853   2.725   8.783   9.681
13616SOL     OW42854   2.469   9.007  10.600
13616SOL    HW142855   2.472   9.096  10.642
13616SOL    HW242856   2.548   9.011  10.544
13617SOL     OW42857   3.175   7.485   9.497
13617SOL    HW142858   3.189   7.437   9.414
13617SOL    HW242859   3.086   7.450   9.523
13618SOL     OW42860   3.128   7.914   9.984
13618SOL    HW142861   3.075   7.996   9.986
13618SOL    HW242862   3.131   7.887  10.077
13619SOL     OW42863   3.460   7.653  10.188
13619SOL    HW142864   3.386   7.666  10.249
13619SOL    HW242865   3.458   7.734  10.133
13620SOL     OW42866   1.945   8.506   9.632
13620SOL    HW142867   2.025   8.460   9.599
13620SOL    HW242868   1.891   8.427   9.655
13621SOL     OW42869   2.733   9.099   9.639
13621SOL    HW142870   2.660   9.085   9.577
13621SOL    HW242871   2.712   9.184   9.683
13622SOL     OW42872   2.107   9.963   0.140
13622SOL    HW142873   2.026   9.925   0.175
13622SOL    HW242874   2.115   9.925   0.052
13623SOL     OW42875   2.124   9.568   0.998
13623SOL    HW142876   2.126   9.559   1.095
13623SOL    HW242877   2.034   9.534   0.979
13624SOL     OW42878   1.859   9.714   0.630
13624SOL    HW142879   1.778   9.740   0.679
13624SOL    HW242880   1.826   9.636   0.583
13625SOL     OW42881   2.425  10.577   1.197
13625SOL    HW142882   2.347  10.576   1.140
13625SOL    HW242883   2.438  10.672   1.211
13626SOL     OW42884   3.432  10.830   0.711
13626SOL    HW142885   3.378  10.822   0.792
13626SOL    HW242886   3.365  10.824   0.641
13627SOL     OW42887   3.004   9.989   0.726
13627SOL    HW142888   3.039  10.073   0.693
13627SOL    HW242889   2.956  10.019   0.805
13628SOL     OW42890   3.637   9.901   0.203
13628SOL    HW142891   3.579   9.944   0.139
13628SOL    HW242892   3.577   9.844   0.253
13629SOL     OW42893   2.598  10.452   1.013
13629SOL    HW142894   2.538  10.487   1.081
13629SOL    HW242895   2.642  10.534   0.983
13630SOL     OW42896   2.740  10.067   1.797
13630SOL    HW142897   2.717  10.130   1.866
13630SOL    HW242898   2.765  10.126   1.723
13631SOL     OW42899   2.559  10.322   0.630
13631SOL    HW142900   2.627  10.307   0.698
13631SOL    HW242901   2.488  10.367   0.681
13632SOL     OW42902   2.570  10.446   1.810
13632SOL    HW142903   2.602  10.534   1.838
13632SOL    HW242904   2.491  10.468   1.757
13633SOL     OW42905   2.187  10.757   1.083
13633SOL    HW142906   2.118  10.717   1.028
13633SOL    HW242907   2.247  10.800   1.018
13634SOL     OW42908   3.352  10.819   1.395
13634SOL    HW142909   3.314  10.897   1.354
13634SOL    HW242910   3.271  10.769   1.413
13635SOL     OW42911   2.303   9.687   1.454
13635SOL    HW142912   2.363   9.652   1.521
13635SOL    HW242913   2.216   9.651   1.482
13636SOL     OW42914   3.468   9.761   0.733
13636SOL    HW142915   3.380   9.775   0.693
13636SOL    HW242916   3.476   9.842   0.784
13637SOL     OW42917   3.016  10.652   1.686
13637SOL    HW142918   3.039  10.650   1.780
13637SOL    HW242919   2.967  10.568   1.676
13638SOL     OW42920   2.110  10.759   0.511
13638SOL    HW142921   2.116  10.854   0.526
13638SOL    HW242922   2.053  10.728   0.582
13639SOL     OW42923   2.130  10.390   0.892
13639SOL    HW142924   2.133  10.314   0.952
13639SOL    HW242925   2.081  10.456   0.944
13640SOL     OW42926   2.441  10.293   0.151
13640SOL    HW142927   2.495  10.341   0.087
13640SOL    HW242928   2.476  10.326   0.236
13641SOL     OW42929   3.472   9.426   1.499
13641SOL    HW142930   3.477   9.501   1.439
13641SOL    HW242931   3.476   9.469   1.586
13642SOL     OW42932   1.962   9.971   0.558
13642SOL    HW142933   1.937   9.879   0.579
13642SOL    HW242934   1.962  10.014   0.646
13643SOL     OW42935   1.922  10.923   0.115
13643SOL    HW142936   1.904  10.834   0.151
13643SOL    HW242937   1.904  10.980   0.191
13644SOL     OW42938   3.564  10.236   0.637
13644SOL    HW142939   3.633  10.188   0.590
13644SOL    HW242940   3.535  10.299   0.570
13645SOL     OW42941   3.490  10.440   0.432
13645SOL    HW142942   3.581  10.434   0.395
13645SOL    HW242943   3.506  10.494   0.512
13646SOL     OW42944   1.966  10.046   1.585
13646SOL    HW142945   2.054  10.083   1.603
13646SOL    HW242946   1.909  10.124   1.593
13647SOL     OW42947   2.441  10.705   0.747
13647SOL    HW142948   2.419  10.611   0.752
13647SOL    HW242949   2.428  10.723   0.652
13648SOL     OW42950   3.161  10.551   1.432
13648SOL    HW142951   3.186  10.492   1.359
13648SOL    HW242952   3.216  10.521   1.506
13649SOL     OW42953   2.702   9.302   0.509
13649SOL    HW142954   2.732   9.394   0.492
13649SOL    HW242955   2.605   9.313   0.506
13650SOL     OW42956   2.037  10.289   1.250
13650SOL    HW142957   2.123  10.244   1.242
13650SOL    HW242958   1.976  10.229   1.204
13651SOL     OW42959   3.411  10.290   0.212
13651SOL    HW142960   3.330  10.249   0.246
13651SOL    HW242961   3.440  10.343   0.289
13652SOL     OW42962   3.053  11.099   1.634
13652SOL    HW142963   3.053   0.067   1.566
13652SOL    HW242964   3.072  11.020   1.579
13653SOL     OW42965   2.206   9.549   1.778
13653SOL    HW142966   2.254   9.618   1.827
13653SOL    HW242967   2.115   9.565   1.809
13654SOL     OW42968   3.354  10.738   0.956
13654SOL    HW142969   3.285  10.754   1.026
13654SOL    HW242970   3.322  10.652   0.921
13655SOL     OW42971   2.432  10.027   0.258
13655SOL    HW142972   2.450  10.113   0.217
13655SOL    HW242973   2.380  10.049   0.338
13656SOL     OW42974   3.139   9.635   0.907
13656SOL    HW142975   3.049   9.610   0.935
13656SOL    HW242976   3.194   9.601   0.981
13657SOL     OW42977   3.431  10.958   0.322
13657SOL    HW142978   3.521  10.924   0.321
13657SOL    HW242979   3.417  10.984   0.230
13658SOL     OW42980   2.673   9.941   1.459
13658SOL    HW142981   2.654   9.901   1.546
13658SOL    HW242982   2.634   9.876   1.398
13659SOL     OW42983   3.252   9.788   1.667
13659SOL    HW142984   3.258   9.847   1.744
13659SOL    HW242985   3.316   9.718   1.689
13660SOL     OW42986   2.827  10.208   1.576
13660SOL    HW142987   2.871  10.125   1.545
13660SOL    HW242988   2.786  10.240   1.494
13661SOL     OW42989   2.829   9.700   1.238
13661SOL    HW142990   2.737   9.728   1.254
13661SOL    HW242991   2.830   9.677   1.144
13662SOL     OW42992   2.902   9.999   0.415
13662SOL    HW142993   2.911  10.005   0.511
13662SOL    HW242994   2.814   9.954   0.408
13663SOL     OW42995   1.963  10.115   0.795
13663SOL    HW142996   2.037  10.121   0.857
13663SOL    HW242997   1.913  10.195   0.813
13664SOL     OW42998   1.949  11.095   1.580
13664SOL    HW142999   1.970   0.012   1.675
13664SOL    HW243000   1.954   0.080   1.539
13665SOL     OW43001   3.587   9.894   1.836
13665SOL    HW143002   3.552   9.969   1.783
13665SOL    HW243003   3.612   9.833   1.766
13666SOL     OW43004   3.224  10.462   0.567
13666SOL    HW143005   3.308  10.461   0.518
13666SOL    HW243006   3.170  10.520   0.510
13667SOL     OW43007   2.405   9.547   0.913
13667SOL    HW143008   2.310   9.557   0.927
13667SOL    HW243009   2.423   9.621   0.853
13668SOL     OW43010   2.841  10.759   0.467
13668SOL    HW143011   2.764  10.808   0.434
13668SOL    HW243012   2.839  10.780   0.561
13669SOL     OW43013   2.208   0.008   0.889
13669SOL    HW143014   2.268  11.035   0.904
13669SOL    HW243015   2.269   0.085   0.887
13670SOL     OW43016   3.664  10.384   0.892
13670SOL    HW143017   3.619  10.367   0.808
13670SOL    HW243018   3.591  10.372   0.956
13671SOL     OW43019   3.076  10.866   1.503
13671SOL    HW143020   3.077  10.783   1.553
13671SOL    HW243021   3.031  10.836   1.422
13672SOL     OW43022   2.178  10.268   0.259
13672SOL    HW143023   2.267  10.274   0.219
13672SOL    HW243024   2.147  10.182   0.228
13673SOL     OW43025   3.342  10.067   0.716
13673SOL    HW143026   3.340  10.036   0.808
13673SOL    HW243027   3.416  10.129   0.715
13674SOL     OW43028   2.342  10.554   1.711
13674SOL    HW143029   2.290  10.572   1.630
13674SOL    HW243030   2.273  10.563   1.778
13675SOL     OW43031   2.928  11.047   0.218
13675SOL    HW143032   2.912  10.983   0.289
13675SOL    HW243033   2.983  10.994   0.157
13676SOL     OW43034   2.039   9.600   1.499
13676SOL    HW143035   1.960   9.657   1.506
13676SOL    HW243036   2.010   9.518   1.541
13677SOL     OW43037   3.462  10.740   0.040
13677SOL    HW143038   3.539  10.712   0.094
13677SOL    HW243039   3.416  10.655   0.025
13678SOL     OW43040   3.260   9.413   0.450
13678SOL    HW143041   3.265   9.372   0.362
13678SOL    HW243042   3.351   9.443   0.464
13679SOL     OW43043   2.247   9.997   0.484
13679SOL    HW143044   2.265   9.901   0.494
13679SOL    HW243045   2.151   9.999   0.501
13680SOL     OW43046   3.398   9.572   1.725
13680SOL    HW143047   3.395   9.571   1.824
13680SOL    HW243048   3.336   9.501   1.704
13681SOL     OW43049   2.476   9.399   0.113
13681SOL    HW143050   2.570   9.384   0.134
13681SOL    HW243051   2.481   9.421   0.019
13682SOL     OW43052   2.631   9.568   1.724
13682SOL    HW143053   2.712   9.513   1.731
13682SOL    HW243054   2.585   9.546   1.806
13683SOL     OW43055   2.729  10.821   1.196
13683SOL    HW143056   2.735  10.789   1.105
13683SOL    HW243057   2.807  10.780   1.239
13684SOL     OW43058   3.199   9.903   1.427
13684SOL    HW143059   3.235   9.872   1.513
13684SOL    HW243060   3.252   9.983   1.409
13685SOL     OW43061   2.690  10.711   0.945
13685SOL    HW143062   2.782  10.693   0.914
13685SOL    HW243063   2.649  10.738   0.862
13686SOL     OW43064   2.800   9.813   0.911
13686SOL    HW143065   2.781   9.801   0.815
13686SOL    HW243066   2.834   9.726   0.934
13687SOL     OW43067   2.435   9.349   0.502
13687SOL    HW143068   2.356   9.363   0.557
13687SOL    HW243069   2.426   9.426   0.442
13688SOL     OW43070   3.302  10.502   0.020
13688SOL    HW143071   3.344  10.438   0.079
13688SOL    HW243072   3.219  10.521   0.065
13689SOL     OW43073   2.144   9.373   0.210
13689SOL    HW143074   2.182   9.422   0.134
13689SOL    HW243075   2.216   9.310   0.230
13690SOL     OW43076   2.802   9.561   0.474
13690SOL    HW143077   2.778   9.597   0.386
13690SOL    HW243078   2.898   9.581   0.475
13691SOL     OW43079   2.953   9.992   1.477
13691SOL    HW143080   2.895   9.914   1.472
13691SOL    HW243081   3.043   9.955   1.468
13692SOL     OW43082   3.102  10.878   0.799
13692SOL    HW143083   3.077  10.963   0.761
13692SOL    HW243084   3.138  10.904   0.885
13693SOL     OW43085   2.337  10.449   0.729
13693SOL    HW143086   2.266  10.424   0.793
13693SOL    HW243087   2.290  10.436   0.644
13694SOL     OW43088   2.935   9.916  11.071
13694SOL    HW143089   2.850   9.938   0.007
13694SOL    HW243090   2.972   9.855   0.034
13695SOL     OW43091   1.921   9.859   1.397
13695SOL    HW143092   2.014   9.866   1.368
13695SOL    HW243093   1.915   9.933   1.460
13696SOL     OW43094   2.750   9.756   0.657
13696SOL    HW143095   2.705   9.816   0.597
13696SOL    HW243096   2.763   9.678   0.601
13697SOL     OW43097   2.829   9.383   0.787
13697SOL    HW143098   2.818   9.364   0.693
13697SOL    HW243099   2.838   9.295   0.827
13698SOL     OW43100   3.287  10.496   0.870
13698SOL    HW143101   3.212  10.436   0.879
13698SOL    HW243102   3.296  10.501   0.774
13699SOL     OW43103   3.361   9.915   0.970
13699SOL    HW143104   3.308   9.834   0.974
13699SOL    HW243105   3.419   9.907   1.047
13700SOL     OW43106   3.694  10.101   0.381
13700SOL    HW143107   3.762  10.058   0.436
13700SOL    HW243108   3.684  10.036   0.310
13701SOL     OW43109   2.343  10.748   0.141
13701SOL    HW143110   2.268  10.714   0.194
13701SOL    HW243111   2.340  10.689   0.063
13702SOL     OW43112   3.528  10.567   0.663
13702SOL    HW143113   3.623  10.587   0.660
13702SOL    HW243114   3.490  10.654   0.681
13703SOL     OW43115   3.263   9.918   0.095
13703SOL    HW143116   3.211   9.883   0.171
13703SOL    HW243117   3.306   9.839   0.061
13704SOL     OW43118   2.379   9.536   0.322
13704SOL    HW143119   2.417   9.483   0.249
13704SOL    HW243120   2.364   9.621   0.277
13705SOL     OW43121   3.605  10.531   1.602
13705SOL    HW143122   3.687  10.487   1.630
13705SOL    HW243123   3.607  10.613   1.654
13706SOL     OW43124   2.905  10.684   1.391
13706SOL    HW143125   2.839  10.615   1.404
13706SOL    HW243126   2.989  10.634   1.394
13707SOL     OW43127   3.453  10.982   1.667
13707SOL    HW143128   3.436  11.021   1.580
13707SOL    HW243129   3.530  10.927   1.650
13708SOL     OW43130   2.983  10.512   1.119
13708SOL    HW143131   3.032  10.592   1.147
13708SOL    HW243132   2.942  10.547   1.038
13709SOL     OW43133   3.455  10.385   1.064
13709SOL    HW143134   3.451  10.453   1.132
13709SOL    HW243135   3.396  10.422   0.995
13710SOL     OW43136   2.793   9.418   1.390
13710SOL    HW143137   2.824   9.391   1.301
13710SOL    HW243138   2.873   9.461   1.426
13711SOL     OW43139   2.857  10.430   1.746
13711SOL    HW143140   2.763  10.449   1.763
13711SOL    HW243141   2.852  10.358   1.680
13712SOL     OW43142   2.564  10.384   0.369
13712SOL    HW143143   2.557  10.359   0.464
13712SOL    HW243144   2.648  10.339   0.345
13713SOL     OW43145   2.273  10.129   1.263
13713SOL    HW143146   2.346  10.128   1.329
13713SOL    HW243147   2.235  10.040   1.272
13714SOL     OW43148   3.145   9.699   1.259
13714SOL    HW143149   3.168   9.778   1.313
13714SOL    HW243150   3.050   9.711   1.243
13715SOL     OW43151   1.901  10.888   1.341
13715SOL    HW143152   1.831  10.935   1.293
13715SOL    HW243153   1.968  10.875   1.273
13716SOL     OW43154   2.207  10.416   0.493
13716SOL    HW143155   2.222  10.492   0.436
13716SOL    HW243156   2.202  10.343   0.429
13717SOL     OW43157   2.411   9.845   0.864
13717SOL    HW143158   2.437   9.902   0.789
13717SOL    HW243159   2.474   9.873   0.932
13718SOL     OW43160   3.090  10.647   0.409
13718SOL    HW143161   3.149  10.719   0.440
13718SOL    HW243162   3.002  10.684   0.428
13719SOL     OW43163   3.438   9.928   0.478
13719SOL    HW143164   3.397   9.970   0.555
13719SOL    HW243165   3.468  10.005   0.428
13720SOL     OW43166   2.188  10.834   1.338
13720SOL    HW143167   2.177  10.800   1.246
13720SOL    HW243168   2.285  10.845   1.335
13721SOL     OW43169   2.296  10.029   1.623
13721SOL    HW143170   2.349  10.079   1.558
13721SOL    HW243171   2.347   9.948   1.633
13722SOL     OW43172   3.489  10.081   1.680
13722SOL    HW143173   3.398  10.114   1.679
13722SOL    HW243174   3.528  10.126   1.602
13723SOL     OW43175   2.855   9.426   1.754
13723SOL    HW143176   2.919   9.497   1.741
13723SOL    HW243177   2.902   9.352   1.713
13724SOL     OW43178   2.367   9.334   1.746
13724SOL    HW143179   2.318   9.272   1.690
13724SOL    HW243180   2.302   9.406   1.757
13725SOL     OW43181   2.443  10.192   1.034
13725SOL    HW143182   2.483  10.280   1.042
13725SOL    HW243183   2.392  10.182   1.117
13726SOL     OW43184   3.225  10.181   1.013
13726SOL    HW143185   3.137  10.147   0.991
13726SOL    HW243186   3.276  10.100   1.021
13727SOL     OW43187   3.101   9.830   0.291
13727SOL    HW143188   3.098   9.753   0.351
13727SOL    HW243189   3.029   9.884   0.327
13728SOL     OW43190   2.194   9.489   1.267
13728SOL    HW143191   2.139   9.527   1.338
13728SOL    HW243192   2.149   9.403   1.253
13729SOL     OW43193   1.904  10.619   1.268
13729SOL    HW143194   1.927  10.555   1.338
13729SOL    HW243195   1.867  10.693   1.317
13730SOL     OW43196   2.579   9.951   1.061
13730SOL    HW143197   2.663   9.930   1.017
13730SOL    HW243198   2.557  10.041   1.029
13731SOL     OW43199   3.629  10.264   1.839
13731SOL    HW143200   3.580  10.199   1.785
13731SOL    HW243201   3.565  10.283   1.909
13732SOL     OW43202   2.197   9.388   0.615
13732SOL    HW143203   2.156   9.472   0.642
13732SOL    HW243204   2.181   9.332   0.692
13733SOL     OW43205   3.446   9.684   0.374
13733SOL    HW143206   3.488   9.631   0.443
13733SOL    HW243207   3.436   9.772   0.417
13734SOL     OW43208   2.893  10.057   0.974
13734SOL    HW143209   2.878  10.063   1.071
13734SOL    HW243210   2.875   9.963   0.955
13735SOL     OW43211   2.846  10.856   1.704
13735SOL    HW143212   2.858  10.914   1.627
13735SOL    HW243213   2.895  10.776   1.675
13736SOL     OW43214   3.711  10.835   1.593
13736SOL    HW143215   3.738  10.900   1.526
13736SOL    HW243216   3.787  10.838   1.654
13737SOL     OW43217   2.206  10.207   1.799
13737SOL    HW143218   2.285  10.237   1.845
13737SOL    HW243219   2.239  10.132   1.746
13738SOL     OW43220   3.391   9.588   0.111
13738SOL    HW143221   3.324   9.526   0.143
13738SOL    HW243222   3.427   9.622   0.193
13739SOL     OW43223   3.139  10.154   0.025
13739SOL    HW143224   3.178  10.068   0.050
13739SOL    HW243225   3.145  10.147  11.030
13740SOL     OW43226   2.931  10.636   0.857
13740SOL    HW143227   2.935  10.562   0.794
13740SOL    HW243228   3.001  10.696   0.827
13741SOL     OW43229   2.153  10.120   0.990
13741SOL    HW143230   2.244  10.139   0.963
13741SOL    HW243231   2.160  10.030   1.024
13742SOL     OW43232   2.181   9.833   1.003
13742SOL    HW143233   2.160   9.740   0.986
13742SOL    HW243234   2.255   9.847   0.940
13743SOL     OW43235   3.018   9.666   1.694
13743SOL    HW143236   2.972   9.724   1.758
13743SOL    HW243237   3.104   9.711   1.686
13744SOL     OW43238   3.029   9.513   1.475
13744SOL    HW143239   3.025   9.573   1.553
13744SOL    HW243240   3.078   9.566   1.411
13745SOL     OW43241   1.861  10.668   0.202
13745SOL    HW143242   1.774  10.679   0.159
13745SOL    HW243243   1.868  10.571   0.208
13746SOL     OW43244   2.373  10.899   0.924
13746SOL    HW143245   2.449  10.957   0.924
13746SOL    HW243246   2.403  10.828   0.863
13747SOL     OW43247   2.839  10.071   1.238
13747SOL    HW143248   2.894  10.045   1.314
13747SOL    HW243249   2.751  10.073   1.278
13748SOL     OW43250   1.891   9.828   1.103
13748SOL    HW143251   1.973   9.835   1.052
13748SOL    HW243252   1.920   9.852   1.192
13749SOL     OW43253   2.078   9.832   1.717
13749SOL    HW143254   2.117   9.776   1.648
13749SOL    HW243255   2.027   9.897   1.666
13750SOL     OW43256   3.245  10.210   1.641
13750SOL    HW143257   3.275  10.304   1.643
13750SOL    HW243258   3.233  10.194   1.546
13751SOL     OW43259   2.655   9.900   0.388
13751SOL    HW143260   2.678   9.823   0.331
13751SOL    HW243261   2.582   9.940   0.339
13752SOL     OW43262   3.515   9.919   1.201
13752SOL    HW143263   3.495   9.847   1.264
13752SOL    HW243264   3.597   9.886   1.159
13753SOL     OW43265   2.095  10.833   1.741
13753SOL    HW143266   2.078  10.904   1.805
13753SOL    HW243267   2.109  10.757   1.801
13754SOL     OW43268   2.558   9.783   1.266
13754SOL    HW143269   2.468   9.751   1.260
13754SOL    HW243270   2.560   9.852   1.195
13755SOL     OW43271   2.322   9.779   0.195
13755SOL    HW143272   2.387   9.850   0.210
13755SOL    HW243273   2.241   9.832   0.192
13756SOL     OW43274   1.970  10.442   1.459
13756SOL    HW143275   1.993  10.391   1.540
13756SOL    HW243276   1.994  10.379   1.387
13757SOL     OW43277   3.191  10.349   1.236
13757SOL    HW143278   3.211  10.302   1.153
13757SOL    HW243279   3.111  10.399   1.210
13758SOL     OW43280   3.172  10.182   0.310
13758SOL    HW143281   3.094  10.136   0.342
13758SOL    HW243282   3.162  10.177   0.214
13759SOL     OW43283   3.635  11.029   1.153
13759SOL    HW143284   3.669  11.058   1.067
13759SOL    HW243285   3.608  10.937   1.134
13760SOL     OW43286   3.114  11.067   1.090
13760SOL    HW143287   3.198  11.076   1.043
13760SOL    HW243288   3.122  10.975   1.125
13761SOL     OW43289   1.973  10.565   1.015
13761SOL    HW143290   1.935  10.582   1.104
13761SOL    HW243291   1.897  10.521   0.970
13762SOL     OW43292   2.549  10.961   1.729
13762SOL    HW143293   2.499  11.044   1.732
13762SOL    HW243294   2.638  10.990   1.704
13763SOL     OW43295   2.740   9.327   0.112
13763SOL    HW143296   2.802   9.394   0.081
13763SOL    HW243297   2.786   9.295   0.191
13764SOL     OW43298   3.547   9.459   0.514
13764SOL    HW143299   3.617   9.442   0.449
13764SOL    HW243300   3.544   9.375   0.565
13765SOL     OW43301   3.244  10.855   0.483
13765SOL    HW143302   3.317  10.873   0.420
13765SOL    HW243303   3.207  10.943   0.493
13766SOL     OW43304   2.023  11.099   1.839
13766SOL    HW143305   1.970  11.034   1.889
13766SOL    HW243306   2.074   0.038   1.911
13767SOL     OW43307   3.123  10.220   0.645
13767SOL    HW143308   3.202  10.165   0.659
13767SOL    HW243309   3.161  10.298   0.600
13768SOL     OW43310   2.644  10.556   1.425
13768SOL    HW143311   2.622  10.617   1.498
13768SOL    HW243312   2.574  10.578   1.361
13769SOL     OW43313   2.556  10.901   0.159
13769SOL    HW143314   2.552  10.910   0.064
13769SOL    HW243315   2.479  10.842   0.176
13770SOL     OW43316   3.699   9.469   0.969
13770SOL    HW143317   3.725   9.383   0.933
13770SOL    HW243318   3.615   9.488   0.922
13771SOL     OW43319   2.108   9.628   0.709
13771SOL    HW143320   2.025   9.672   0.684
13771SOL    HW243321   2.112   9.643   0.804
13772SOL     OW43322   3.078  10.906   0.044
13772SOL    HW143323   3.093  10.810   0.049
13772SOL    HW243324   3.014  10.914  11.072
13773SOL     OW43325   2.698  10.308   1.348
13773SOL    HW143326   2.751  10.316   1.267
13773SOL    HW243327   2.685  10.402   1.373
13774SOL     OW43328   2.779  10.251   0.291
13774SOL    HW143329   2.835  10.271   0.213
13774SOL    HW243330   2.811  10.164   0.317
13775SOL     OW43331   3.352  10.998   0.050
13775SOL    HW143332   3.267  10.952   0.052
13775SOL    HW243333   3.412  10.925   0.026
13776SOL     OW43334   2.182  10.605   1.506
13776SOL    HW143335   2.200  10.650   1.423
13776SOL    HW243336   2.117  10.538   1.480
13777SOL     OW43337   3.502  10.621   1.323
13777SOL    HW143338   3.468  10.560   1.389
13777SOL    HW243339   3.442  10.698   1.337
13778SOL     OW43340   2.917  10.408   0.718
13778SOL    HW143341   2.847  10.349   0.751
13778SOL    HW243342   2.978  10.345   0.676
13779SOL     OW43343   2.897   9.543   0.989
13779SOL    HW143344   2.867   9.501   0.905
13779SOL    HW243345   2.899   9.465   1.047
13780SOL     OW43346   2.474  10.826   0.489
13780SOL    HW143347   2.502  10.772   0.413
13780SOL    HW243348   2.418  10.893   0.448
13781SOL     OW43349   3.573   9.690   1.381
13781SOL    HW143350   3.639   9.762   1.383
13781SOL    HW243351   3.620   9.623   1.326
13782SOL     OW43352   2.131  10.653   0.274
13782SOL    HW143353   2.037  10.646   0.254
13782SOL    HW243354   2.129  10.697   0.361
13783SOL     OW43355   1.992  10.333   1.701
13783SOL    HW143356   1.916  10.313   1.760
13783SOL    HW243357   2.066  10.285   1.746
13784SOL     OW43358   2.551   9.503   1.473
13784SOL    HW143359   2.641   9.473   1.447
13784SOL    HW243360   2.569   9.538   1.563
13785SOL     OW43361   1.975   9.693   0.011
13785SOL    HW143362   1.903   9.632  11.089
13785SOL    HW243363   1.947   9.772  11.066
13786SOL     OW43364   3.312  10.153   1.377
13786SOL    HW143365   3.263  10.221   1.326
13786SOL    HW243366   3.404  10.181   1.362
13787SOL     OW43367   1.911   9.464   0.318
13787SOL    HW143368   1.912   9.550   0.274
13787SOL    HW243369   2.001   9.432   0.299
13788SOL     OW43370   3.054  10.622   0.132
13788SOL    HW143371   2.958  10.612   0.122
13788SOL    HW243372   3.066  10.619   0.228
13789SOL     OW43373   2.484  10.133   1.427
13789SOL    HW143374   2.540  10.209   1.405
13789SOL    HW243375   2.553  10.066   1.443
13790SOL     OW43376   3.358  11.076   0.956
13790SOL    HW143377   3.387   0.015   0.873
13790SOL    HW243378   3.441  11.057   1.000
13791SOL     OW43379   2.577   9.849   1.693
13791SOL    HW143380   2.621   9.912   1.753
13791SOL    HW243381   2.604   9.762   1.725
13792SOL     OW43382   3.342  10.459   1.639
13792SOL    HW143383   3.318  10.483   1.731
13792SOL    HW243384   3.437  10.480   1.637
13793SOL     OW43385   3.557  10.188   1.233
13793SOL    HW143386   3.538  10.094   1.211
13793SOL    HW243387   3.513  10.237   1.161
13794SOL     OW43388   3.077   9.638   0.484
13794SOL    HW143389   3.137   9.563   0.469
13794SOL    HW243390   3.124   9.691   0.551
13795SOL     OW43391   2.457  10.033   0.676
13795SOL    HW143392   2.503  10.116   0.659
13795SOL    HW243393   2.391  10.031   0.605
13796SOL     OW43394   3.634   9.677   1.641
13796SOL    HW143395   3.604   9.687   1.549
13796SOL    HW243396   3.556   9.635   1.681
13797SOL     OW43397   3.596  10.235   1.493
13797SOL    HW143398   3.611  10.330   1.493
13797SOL    HW243399   3.606  10.211   1.399
13798SOL     OW43400   2.740  10.680   0.052
13798SOL    HW143401   2.672  10.688   0.120
13798SOL    HW243402   2.749  10.771   0.019
13799SOL     OW43403   2.740  10.254   0.844
13799SOL    HW143404   2.794  10.190   0.894
13799SOL    HW243405   2.714  10.317   0.913
13800SOL     OW43406   2.901  10.300   0.058
13800SOL    HW143407   2.904  10.350  11.078
13800SOL    HW243408   2.989  10.257   0.059
13801SOL     OW43409   3.668  10.919   0.865
13801SOL    HW143410   3.596  10.883   0.811
13801SOL    HW243411   3.709  10.840   0.902
13802SOL     OW43412   2.124  10.598   1.869
13802SOL    HW143413   2.059  10.539   1.829
13802SOL    HW243414   2.098  10.596   1.963
13803SOL     OW43415   1.954  10.561   0.655
13803SOL    HW143416   1.978  10.513   0.736
13803SOL    HW243417   2.008  10.517   0.589
13804SOL     OW43418   2.542  10.719   1.612
13804SOL    HW143419   2.477  10.666   1.661
13804SOL    HW243420   2.537  10.805   1.657
13805SOL     OW43421   3.686   9.480   1.235
13805SOL    HW143422   3.696   9.385   1.245
13805SOL    HW243423   3.689   9.489   1.137
13806SOL     OW43424   2.304   9.733   0.521
13806SOL    HW143425   2.346   9.668   0.463
13806SOL    HW243426   2.251   9.678   0.581
13807SOL     OW43427   3.565  10.774   1.109
13807SOL    HW143428   3.491  10.774   1.044
13807SOL    HW243429   3.529  10.716   1.178
13808SOL     OW43430   2.182   9.857   1.280
13808SOL    HW143431   2.241   9.804   1.337
13808SOL    HW243432   2.200   9.824   1.191
13809SOL     OW43433   2.679  10.876   0.683
13809SOL    HW143434   2.680  10.959   0.631
13809SOL    HW243435   2.592  10.839   0.663
13810SOL     OW43436   3.290   9.543   1.096
13810SOL    HW143437   3.333   9.472   1.145
13810SOL    HW243438   3.246   9.595   1.167
13811SOL     OW43439   2.877   9.312   1.149
13811SOL    HW143440   2.824   9.235   1.125
13811SOL    HW243441   2.968   9.273   1.147
13812SOL     OW43442   2.611  10.644   0.314
13812SOL    HW143443   2.567  10.557   0.317
13812SOL    HW243444   2.693  10.625   0.361
13813SOL     OW43445   2.456  10.858   1.268
13813SOL    HW143446   2.475  10.945   1.306
13813SOL    HW243447   2.546  10.834   1.237
13814SOL     OW43448   3.192   9.344   0.168
13814SOL    HW143449   3.202   9.310   0.078
13814SOL    HW243450   3.110   9.299   0.197
13815SOL     OW43451   3.190   9.791   0.694
13815SOL    HW143452   3.122   9.861   0.695
13815SOL    HW243453   3.167   9.741   0.775
13816SOL     OW43454   3.456   9.516   0.855
13816SOL    HW143455   3.377   9.527   0.909
13816SOL    HW243456   3.457   9.598   0.802
13817SOL     OW43457   1.924  10.399   0.254
13817SOL    HW143458   2.020  10.384   0.257
13817SOL    HW243459   1.892  10.316   0.293
13818SOL     OW43460   2.105   9.945   1.993
13818SOL    HW143461   2.015   9.930   2.025
13818SOL    HW243462   2.100   9.927   1.898
13819SOL     OW43463   2.096   9.592   2.858
13819SOL    HW143464   2.117   9.566   2.951
13819SOL    HW243465   2.009   9.548   2.847
13820SOL     OW43466   1.862   9.715   2.488
13820SOL    HW143467   1.780   9.738   2.536
13820SOL    HW243468   1.836   9.631   2.449
13821SOL     OW43469   2.421  10.570   3.031
13821SOL    HW143470   2.336  10.573   2.984
13821SOL    HW243471   2.420  10.656   3.076
13822SOL     OW43472   3.428  10.841   2.576
13822SOL    HW143473   3.376  10.812   2.654
13822SOL    HW243474   3.365  10.833   2.502
13823SOL     OW43475   3.013   9.974   2.580
13823SOL    HW143476   3.037  10.064   2.550
13823SOL    HW243477   2.959   9.998   2.658
13824SOL     OW43478   3.630   9.912   2.098
13824SOL    HW143479   3.617   9.916   2.001
13824SOL    HW243480   3.592   9.825   2.118
13825SOL     OW43481   2.618  10.460   2.875
13825SOL    HW143482   2.548  10.494   2.934
13825SOL    HW243483   2.652  10.544   2.837
13826SOL     OW43484   2.735  10.094   3.668
13826SOL    HW143485   2.720  10.157   3.740
13826SOL    HW243486   2.763  10.149   3.593
13827SOL     OW43487   2.556  10.337   2.517
13827SOL    HW143488   2.617  10.318   2.590
13827SOL    HW243489   2.482  10.382   2.562
13828SOL     OW43490   2.576  10.449   3.655
13828SOL    HW143491   2.604  10.534   3.695
13828SOL    HW243492   2.490  10.472   3.617
13829SOL     OW43493   2.185  10.736   2.935
13829SOL    HW143494   2.105  10.699   2.895
13829SOL    HW243495   2.225  10.790   2.865
13830SOL     OW43496   3.339  10.832   3.269
13830SOL    HW143497   3.277  10.892   3.225
13830SOL    HW243498   3.278  10.770   3.312
13831SOL     OW43499   2.301   9.707   3.387
13831SOL    HW143500   2.370   9.639   3.384
13831SOL    HW243501   2.220   9.657   3.372
13832SOL     OW43502   3.388   9.757   2.580
13832SOL    HW143503   3.430   9.811   2.510
13832SOL    HW243504   3.419   9.803   2.660
13833SOL     OW43505   3.016  10.660   3.538
13833SOL    HW143506   3.041  10.663   3.632
13833SOL    HW243507   2.967  10.576   3.535
13834SOL     OW43508   2.077  10.777   2.377
13834SOL    HW143509   2.109  10.855   2.424
13834SOL    HW243510   2.034  10.725   2.447
13835SOL     OW43511   2.129  10.401   2.763
13835SOL    HW143512   2.129  10.329   2.828
13835SOL    HW243513   2.075  10.470   2.808
13836SOL     OW43514   2.419  10.308   1.987
13836SOL    HW143515   2.474  10.351   1.918
13836SOL    HW243516   2.465  10.339   2.068
13837SOL     OW43517   3.469   9.419   3.359
13837SOL    HW143518   3.466   9.499   3.305
13837SOL    HW243519   3.479   9.457   3.448
13838SOL     OW43520   1.982   9.958   2.427
13838SOL    HW143521   1.945   9.869   2.441
13838SOL    HW243522   1.974   9.999   2.514
13839SOL     OW43523   1.918  10.897   1.985
13839SOL    HW143524   1.902  10.802   2.001
13839SOL    HW243525   1.864  10.938   2.054
13840SOL     OW43526   3.519  10.223   2.503
13840SOL    HW143527   3.600  10.183   2.467
13840SOL    HW243528   3.498  10.289   2.435
13841SOL     OW43529   3.515  10.426   2.312
13841SOL    HW143530   3.603  10.421   2.271
13841SOL    HW243531   3.527  10.493   2.381
13842SOL     OW43532   1.984  10.045   3.444
13842SOL    HW143533   2.079  10.063   3.442
13842SOL    HW243534   1.951  10.128   3.484
13843SOL     OW43535   2.453  10.705   2.617
13843SOL    HW143536   2.416  10.614   2.624
13843SOL    HW243537   2.447  10.717   2.520
13844SOL     OW43538   3.173  10.563   3.282
13844SOL    HW143539   3.198  10.493   3.220
13844SOL    HW243540   3.215  10.532   3.365
13845SOL     OW43541   2.699   9.307   2.365
13845SOL    HW143542   2.725   9.400   2.351
13845SOL    HW243543   2.603   9.315   2.379
13846SOL     OW43544   2.043  10.289   3.109
13846SOL    HW143545   2.130  10.246   3.097
13846SOL    HW243546   1.981  10.225   3.074
13847SOL     OW43547   3.400  10.288   2.059
13847SOL    HW143548   3.321  10.241   2.092
13847SOL    HW243549   3.442  10.316   2.141
13848SOL     OW43550   3.075   0.002   3.489
13848SOL    HW143551   3.058   0.064   3.417
13848SOL    HW243552   3.078  11.018   3.443
13849SOL     OW43553   2.198   9.546   3.642
13849SOL    HW143554   2.258   9.617   3.669
13849SOL    HW243555   2.116   9.575   3.685
13850SOL     OW43556   3.325  10.742   2.817
13850SOL    HW143557   3.268  10.742   2.896
13850SOL    HW243558   3.302  10.656   2.777
13851SOL     OW43559   2.451  10.022   2.120
13851SOL    HW143560   2.446  10.112   2.084
13851SOL    HW243561   2.378  10.022   2.185
13852SOL     OW43562   3.119   9.622   2.750
13852SOL    HW143563   3.030   9.597   2.783
13852SOL    HW243564   3.176   9.592   2.824
13853SOL     OW43565   3.441  10.948   2.176
13853SOL    HW143566   3.482  11.032   2.201
13853SOL    HW243567   3.430  10.958   2.078
13854SOL     OW43568   2.670   9.941   3.316
13854SOL    HW143569   2.655   9.905   3.406
13854SOL    HW243570   2.620   9.877   3.261
13855SOL     OW43571   3.256   9.787   3.532
13855SOL    HW143572   3.263   9.847   3.608
13855SOL    HW243573   3.316   9.714   3.558
13856SOL     OW43574   2.828  10.211   3.437
13856SOL    HW143575   2.860  10.123   3.407
13856SOL    HW243576   2.783  10.243   3.356
13857SOL     OW43577   2.849   9.713   3.100
13857SOL    HW143578   2.771   9.725   3.155
13857SOL    HW243579   2.813   9.669   3.022
13858SOL     OW43580   2.908   9.989   2.271
13858SOL    HW143581   2.909  10.019   2.363
13858SOL    HW243582   2.820   9.945   2.265
13859SOL     OW43583   1.961  10.118   2.659
13859SOL    HW143584   2.031  10.112   2.726
13859SOL    HW243585   1.921  10.203   2.679
13860SOL     OW43586   1.927   0.064   3.447
13860SOL    HW143587   1.968   0.033   3.531
13860SOL    HW243588   1.834   0.044   3.459
13861SOL     OW43589   2.738   9.673   2.073
13861SOL    HW143590   2.774   9.729   2.002
13861SOL    HW243591   2.747   9.586   2.034
13862SOL     OW43592   3.591   9.886   3.702
13862SOL    HW143593   3.553   9.963   3.656
13862SOL    HW243594   3.616   9.831   3.627
13863SOL     OW43595   3.230  10.455   2.416
13863SOL    HW143596   3.311  10.459   2.363
13863SOL    HW243597   3.174  10.521   2.371
13864SOL     OW43598   2.413   9.520   2.758
13864SOL    HW143599   2.418   9.529   2.856
13864SOL    HW243600   2.392   9.610   2.730
13865SOL     OW43601   2.864  10.787   2.358
13865SOL    HW143602   2.781  10.811   2.315
13865SOL    HW243603   2.848  10.813   2.450
13866SOL     OW43604   2.207   0.007   2.726
13866SOL    HW143605   2.262  11.033   2.754
13866SOL    HW243606   2.271   0.080   2.725
13867SOL     OW43607   3.659  10.393   2.759
13867SOL    HW143608   3.612  10.371   2.677
13867SOL    HW243609   3.588  10.384   2.826
13868SOL     OW43610   3.070  10.871   3.359
13868SOL    HW143611   3.073  10.794   3.419
13868SOL    HW243612   3.011  10.834   3.290
13869SOL     OW43613   2.168  10.255   2.116
13869SOL    HW143614   2.253  10.274   2.073
13869SOL    HW243615   2.137  10.177   2.069
13870SOL     OW43616   3.334  10.054   2.588
13870SOL    HW143617   3.348  10.040   2.683
13870SOL    HW243618   3.403  10.121   2.568
13871SOL     OW43619   2.343  10.562   3.574
13871SOL    HW143620   2.290  10.576   3.493
13871SOL    HW243621   2.274  10.573   3.642
13872SOL     OW43622   2.932  11.073   2.104
13872SOL    HW143623   2.864  11.019   2.144
13872SOL    HW243624   2.956  11.027   2.023
13873SOL     OW43625   2.035   9.605   3.361
13873SOL    HW143626   1.956   9.657   3.385
13873SOL    HW243627   2.020   9.522   3.409
13874SOL     OW43628   3.485  10.696   1.947
13874SOL    HW143629   3.438  10.779   1.939
13874SOL    HW243630   3.416  10.630   1.927
13875SOL     OW43631   3.259   9.449   2.307
13875SOL    HW143632   3.252   9.393   2.227
13875SOL    HW243633   3.356   9.452   2.320
13876SOL     OW43634   2.259   9.997   2.324
13876SOL    HW143635   2.280   9.904   2.347
13876SOL    HW243636   2.164   9.998   2.347
13877SOL     OW43637   3.401   9.567   3.593
13877SOL    HW143638   3.399   9.570   3.692
13877SOL    HW243639   3.339   9.494   3.576
13878SOL     OW43640   2.501   9.445   1.953
13878SOL    HW143641   2.564   9.380   1.986
13878SOL    HW243642   2.451   9.392   1.887
13879SOL     OW43643   2.634   9.569   3.598
13879SOL    HW143644   2.714   9.514   3.610
13879SOL    HW243645   2.581   9.546   3.677
13880SOL     OW43646   2.761  10.847   3.028
13880SOL    HW143647   2.742  10.801   2.944
13880SOL    HW243648   2.814  10.783   3.078
13881SOL     OW43649   3.197   9.905   3.285
13881SOL    HW143650   3.234   9.869   3.368
13881SOL    HW243651   3.249   9.987   3.273
13882SOL     OW43652   2.697  10.710   2.797
13882SOL    HW143653   2.783  10.700   2.750
13882SOL    HW243654   2.635  10.719   2.722
13883SOL     OW43655   2.807   9.827   2.766
13883SOL    HW143656   2.782   9.813   2.672
13883SOL    HW243657   2.820   9.736   2.795
13884SOL     OW43658   2.428   9.356   2.370
13884SOL    HW143659   2.349   9.358   2.427
13884SOL    HW243660   2.412   9.432   2.311
13885SOL     OW43661   3.303  10.500   1.903
13885SOL    HW143662   3.331  10.425   1.958
13885SOL    HW243663   3.210  10.511   1.927
13886SOL     OW43664   2.143   9.351   2.052
13886SOL    HW143665   2.205   9.423   2.039
13886SOL    HW243666   2.203   9.284   2.091
13887SOL     OW43667   2.789   9.561   2.338
13887SOL    HW143668   2.771   9.612   2.258
13887SOL    HW243669   2.885   9.573   2.348
13888SOL     OW43670   2.947   9.992   3.326
13888SOL    HW143671   2.895   9.911   3.330
13888SOL    HW243672   3.039   9.960   3.321
13889SOL     OW43673   3.105  10.876   2.658
13889SOL    HW143674   3.074  10.950   2.605
13889SOL    HW243675   3.172  10.917   2.714
13890SOL     OW43676   2.327  10.471   2.595
13890SOL    HW143677   2.255  10.443   2.656
13890SOL    HW243678   2.291  10.446   2.507
13891SOL     OW43679   2.913   9.843   1.875
13891SOL    HW143680   2.867   9.928   1.863
13891SOL    HW243681   2.983   9.865   1.938
13892SOL     OW43682   1.926   9.859   3.257
13892SOL    HW143683   2.020   9.838   3.244
13892SOL    HW243684   1.930   9.939   3.314
13893SOL     OW43685   2.428   9.543   3.030
13893SOL    HW143686   2.472   9.470   3.076
13893SOL    HW243687   2.336   9.531   3.059
13894SOL     OW43688   2.745   9.767   2.517
13894SOL    HW143689   2.684   9.813   2.458
13894SOL    HW243690   2.755   9.681   2.472
13895SOL     OW43691   2.872   9.384   2.632
13895SOL    HW143692   2.828   9.361   2.549
13895SOL    HW243693   2.857   9.303   2.685
13896SOL     OW43694   3.287  10.492   2.740
13896SOL    HW143695   3.214  10.429   2.746
13896SOL    HW243696   3.314  10.480   2.648
13897SOL     OW43697   3.340   9.876   2.836
13897SOL    HW143698   3.297   9.800   2.875
13897SOL    HW243699   3.407   9.899   2.903
13898SOL     OW43700   3.698  10.135   2.259
13898SOL    HW143701   3.757  10.081   2.317
13898SOL    HW243702   3.688  10.076   2.183
13899SOL     OW43703   2.350  10.749   2.048
13899SOL    HW143704   2.267  10.721   2.093
13899SOL    HW243705   2.358  10.680   1.982
13900SOL     OW43706   3.547  10.600   2.532
13900SOL    HW143707   3.644  10.612   2.527
13900SOL    HW243708   3.514  10.690   2.549
13901SOL     OW43709   3.258   9.900   1.917
13901SOL    HW143710   3.212   9.867   1.996
13901SOL    HW243711   3.349   9.871   1.932
13902SOL     OW43712   2.378   9.540   2.177
13902SOL    HW143713   2.430   9.513   2.099
13902SOL    HW243714   2.348   9.629   2.148
13903SOL     OW43715   3.597  10.523   3.459
13903SOL    HW143716   3.689  10.497   3.440
13903SOL    HW243717   3.611  10.604   3.510
13904SOL     OW43718   2.916  10.687   3.226
13904SOL    HW143719   2.833  10.641   3.245
13904SOL    HW243720   2.984  10.625   3.259
13905SOL     OW43721   2.991  10.534   2.972
13905SOL    HW143722   2.909  10.548   3.020
13905SOL    HW243723   2.967  10.561   2.882
13906SOL     OW43724   3.457  10.403   2.942
13906SOL    HW143725   3.457  10.463   3.018
13906SOL    HW243726   3.395  10.447   2.881
13907SOL     OW43727   2.774   9.417   3.253
13907SOL    HW143728   2.807   9.386   3.166
13907SOL    HW243729   2.855   9.449   3.296
13908SOL     OW43730   2.859  10.438   3.603
13908SOL    HW143731   2.765  10.455   3.621
13908SOL    HW243732   2.854  10.361   3.542
13909SOL     OW43733   2.573  10.389   2.224
13909SOL    HW143734   2.563  10.359   2.316
13909SOL    HW243735   2.653  10.339   2.195
13910SOL     OW43736   2.283  10.127   3.117
13910SOL    HW143737   2.355  10.125   3.183
13910SOL    HW243738   2.239  10.042   3.133
13911SOL     OW43739   3.137   9.704   3.113
13911SOL    HW143740   3.156   9.778   3.174
13911SOL    HW243741   3.040   9.712   3.100
13912SOL     OW43742   1.917  10.876   3.217
13912SOL    HW143743   1.891  10.943   3.152
13912SOL    HW243744   2.014  10.881   3.217
13913SOL     OW43745   2.225  10.397   2.357
13913SOL    HW143746   2.252  10.459   2.288
13913SOL    HW243747   2.207  10.316   2.305
13914SOL     OW43748   2.398   9.854   2.711
13914SOL    HW143749   2.426   9.912   2.637
13914SOL    HW243750   2.461   9.879   2.781
13915SOL     OW43751   3.103  10.663   2.254
13915SOL    HW143752   3.163  10.731   2.292
13915SOL    HW243753   3.016  10.701   2.277
13916SOL     OW43754   3.164  10.746   3.042
13916SOL    HW143755   3.192  10.705   3.125
13916SOL    HW243756   3.097  10.681   3.012
13917SOL     OW43757   3.448   9.920   2.347
13917SOL    HW143758   3.414   9.998   2.392
13917SOL    HW243759   3.492   9.958   2.269
13918SOL     OW43760   2.191  10.828   3.187
13918SOL    HW143761   2.177  10.794   3.097
13918SOL    HW243762   2.288  10.833   3.187
13919SOL     OW43763   2.295  10.038   3.479
13919SOL    HW143764   2.352  10.084   3.416
13919SOL    HW243765   2.333   9.948   3.477
13920SOL     OW43766   3.493  10.077   3.544
13920SOL    HW143767   3.403  10.113   3.542
13920SOL    HW243768   3.533  10.120   3.465
13921SOL     OW43769   2.860   9.429   3.619
13921SOL    HW143770   2.914   9.505   3.593
13921SOL    HW243771   2.912   9.356   3.582
13922SOL     OW43772   2.365   9.329   3.617
13922SOL    HW143773   2.324   9.272   3.550
13922SOL    HW243774   2.303   9.405   3.617
13923SOL     OW43775   2.479  10.199   2.907
13923SOL    HW143776   2.493  10.295   2.906
13923SOL    HW243777   2.410  10.187   2.975
13924SOL     OW43778   3.229  10.191   2.866
13924SOL    HW143779   3.141  10.155   2.852
13924SOL    HW243780   3.273  10.117   2.910
13925SOL     OW43781   3.092   9.833   2.130
13925SOL    HW143782   3.079   9.755   2.187
13925SOL    HW243783   3.033   9.897   2.174
13926SOL     OW43784   2.152   9.509   3.108
13926SOL    HW143785   2.110   9.538   3.191
13926SOL    HW243786   2.126   9.414   3.105
13927SOL     OW43787   1.894  10.614   3.135
13927SOL    HW143788   1.922  10.558   3.209
13927SOL    HW243789   1.901  10.704   3.172
13928SOL     OW43790   2.577   9.948   2.901
13928SOL    HW143791   2.661   9.935   2.854
13928SOL    HW243792   2.557  10.044   2.891
13929SOL     OW43793   3.619  10.265   3.704
13929SOL    HW143794   3.581  10.198   3.645
13929SOL    HW243795   3.549  10.275   3.770
13930SOL     OW43796   2.173   9.373   2.473
13930SOL    HW143797   2.142   9.462   2.496
13930SOL    HW243798   2.176   9.330   2.560
13931SOL     OW43799   3.457   9.688   2.209
13931SOL    HW143800   3.495   9.617   2.263
13931SOL    HW243801   3.455   9.764   2.270
13932SOL     OW43802   2.916  10.062   2.829
13932SOL    HW143803   2.897  10.078   2.924
13932SOL    HW243804   2.884   9.970   2.820
13933SOL     OW43805   2.848  10.861   3.581
13933SOL    HW143806   2.799  10.888   3.503
13933SOL    HW243807   2.890  10.778   3.553
13934SOL     OW43808   3.709  10.837   3.459
13934SOL    HW143809   3.759  10.841   3.375
13934SOL    HW243810   3.784  10.836   3.522
13935SOL     OW43811   2.210  10.195   3.677
13935SOL    HW143812   2.293  10.228   3.715
13935SOL    HW243813   2.241  10.127   3.614
13936SOL     OW43814   3.360   9.558   1.987
13936SOL    HW143815   3.298   9.492   2.021
13936SOL    HW243816   3.400   9.597   2.068
13937SOL     OW43817   3.164  10.152   1.887
13937SOL    HW143818   3.200  10.061   1.896
13937SOL    HW243819   3.189  10.171   1.794
13938SOL     OW43820   2.945  10.641   2.710
13938SOL    HW143821   2.946  10.563   2.650
13938SOL    HW243822   3.003  10.705   2.666
13939SOL     OW43823   2.145  10.119   2.858
13939SOL    HW143824   2.235  10.135   2.826
13939SOL    HW243825   2.150  10.024   2.880
13940SOL     OW43826   2.178   9.849   2.860
13940SOL    HW143827   2.154   9.754   2.850
13940SOL    HW243828   2.249   9.856   2.792
13941SOL     OW43829   3.014   9.680   3.548
13941SOL    HW143830   2.970   9.733   3.618
13941SOL    HW243831   3.104   9.719   3.550
13942SOL     OW43832   3.027   9.501   3.351
13942SOL    HW143833   3.024   9.569   3.422
13942SOL    HW243834   3.071   9.549   3.280
13943SOL     OW43835   1.863  10.624   2.038
13943SOL    HW143836   1.772  10.647   2.011
13943SOL    HW243837   1.849  10.541   2.087
13944SOL     OW43838   2.376  10.904   2.789
13944SOL    HW143839   2.451  10.965   2.784
13944SOL    HW243840   2.408  10.829   2.736
13945SOL     OW43841   2.841  10.075   3.087
13945SOL    HW143842   2.890  10.045   3.166
13945SOL    HW243843   2.751  10.052   3.112
13946SOL     OW43844   1.895   9.830   2.972
13946SOL    HW143845   1.977   9.824   2.922
13946SOL    HW243846   1.926   9.851   3.061
13947SOL     OW43847   2.081   9.832   3.585
13947SOL    HW143848   2.130   9.784   3.517
13947SOL    HW243849   2.032   9.898   3.533
13948SOL     OW43850   3.264  10.221   3.516
13948SOL    HW143851   3.291  10.314   3.516
13948SOL    HW243852   3.246  10.204   3.422
13949SOL     OW43853   2.667   9.880   2.239
13949SOL    HW143854   2.675   9.806   2.176
13949SOL    HW243855   2.590   9.929   2.204
13950SOL     OW43856   3.503   9.926   3.050
13950SOL    HW143857   3.482   9.871   3.126
13950SOL    HW243858   3.591   9.893   3.024
13951SOL     OW43859   2.088  10.847   3.596
13951SOL    HW143860   2.068  10.913   3.664
13951SOL    HW243861   2.104  10.767   3.650
13952SOL     OW43862   2.545   9.795   3.128
13952SOL    HW143863   2.497   9.715   3.100
13952SOL    HW243864   2.546   9.850   3.048
13953SOL     OW43865   2.311   9.777   2.064
13953SOL    HW143866   2.375   9.850   2.064
13953SOL    HW243867   2.227   9.827   2.059
13954SOL     OW43868   1.977  10.444   3.324
13954SOL    HW143869   1.996  10.389   3.404
13954SOL    HW243870   2.002  10.384   3.251
13955SOL     OW43871   3.188  10.358   3.092
13955SOL    HW143872   3.216  10.309   3.012
13955SOL    HW243873   3.109  10.405   3.058
13956SOL     OW43874   3.168  10.179   2.155
13956SOL    HW143875   3.083  10.150   2.188
13956SOL    HW243876   3.155  10.179   2.058
13957SOL     OW43877   3.629  11.029   3.021
13957SOL    HW143878   3.681  11.052   2.942
13957SOL    HW243879   3.602  10.937   2.999
13958SOL     OW43880   3.112  11.029   2.963
13958SOL    HW143881   3.196  11.047   2.917
13958SOL    HW243882   3.116  10.933   2.976
13959SOL     OW43883   1.961  10.573   2.877
13959SOL    HW143884   1.930  10.587   2.969
13959SOL    HW243885   1.891  10.515   2.842
13960SOL     OW43886   2.550  10.963   3.573
13960SOL    HW143887   2.474  11.023   3.580
13960SOL    HW243888   2.624  11.024   3.569
13961SOL     OW43889   3.539   9.454   2.354
13961SOL    HW143890   3.615   9.439   2.296
13961SOL    HW243891   3.540   9.375   2.411
13962SOL     OW43892   3.250  10.876   2.347
13962SOL    HW143893   3.324  10.891   2.285
13962SOL    HW243894   3.209  10.964   2.347
13963SOL     OW43895   2.032   0.017   3.701
13963SOL    HW143896   1.969  11.053   3.736
13963SOL    HW243897   2.085   0.036   3.781
13964SOL     OW43898   3.118  10.215   2.523
13964SOL    HW143899   3.199  10.165   2.546
13964SOL    HW243900   3.155  10.295   2.481
13965SOL     OW43901   2.654  10.582   3.257
13965SOL    HW143902   2.634  10.631   3.339
13965SOL    HW243903   2.567  10.581   3.216
13966SOL     OW43904   2.531  10.934   2.004
13966SOL    HW143905   2.553  10.914   1.911
13966SOL    HW243906   2.463  10.866   2.023
13967SOL     OW43907   3.702   9.471   2.834
13967SOL    HW143908   3.724   9.382   2.800
13967SOL    HW243909   3.616   9.492   2.791
13968SOL     OW43910   2.109   9.629   2.563
13968SOL    HW143911   2.023   9.671   2.544
13968SOL    HW243912   2.116   9.639   2.659
13969SOL     OW43913   3.063  10.934   1.893
13969SOL    HW143914   3.057  10.840   1.915
13969SOL    HW243915   3.001  10.943   1.819
13970SOL     OW43916   2.695  10.319   3.216
13970SOL    HW143917   2.727  10.308   3.126
13970SOL    HW243918   2.684  10.416   3.224
13971SOL     OW43919   2.778  10.239   2.148
13971SOL    HW143920   2.850  10.266   2.087
13971SOL    HW243921   2.804  10.150   2.172
13972SOL     OW43922   3.375  10.964   1.917
13972SOL    HW143923   3.282  10.942   1.899
13972SOL    HW243924   3.409  10.977   1.826
13973SOL     OW43925   2.201  10.595   3.353
13973SOL    HW143926   2.182  10.667   3.292
13973SOL    HW243927   2.126  10.535   3.340
13974SOL     OW43928   3.456  10.598   3.142
13974SOL    HW143929   3.523  10.576   3.208
13974SOL    HW243930   3.424  10.685   3.171
13975SOL     OW43931   2.912  10.416   2.575
13975SOL    HW143932   2.842  10.363   2.618
13975SOL    HW243933   2.966  10.348   2.532
13976SOL     OW43934   2.884   9.540   2.849
13976SOL    HW143935   2.870   9.493   2.764
13976SOL    HW243936   2.886   9.465   2.912
13977SOL     OW43937   2.470  10.804   2.364
13977SOL    HW143938   2.491  10.767   2.277
13977SOL    HW243939   2.421  10.884   2.341
13978SOL     OW43940   3.571   9.683   3.244
13978SOL    HW143941   3.634   9.757   3.240
13978SOL    HW243942   3.616   9.616   3.188
13979SOL     OW43943   2.119  10.668   2.144
13979SOL    HW143944   2.024  10.669   2.123
13979SOL    HW243945   2.117  10.704   2.236
13980SOL     OW43946   1.996  10.309   3.556
13980SOL    HW143947   1.921  10.309   3.619
13980SOL    HW243948   2.069  10.273   3.611
13981SOL     OW43949   2.529   9.488   3.356
13981SOL    HW143950   2.616   9.462   3.320
13981SOL    HW243951   2.555   9.527   3.442
13982SOL     OW43952   1.967   9.643   1.873
13982SOL    HW143953   1.871   9.651   1.869
13982SOL    HW243954   1.995   9.725   1.829
13983SOL     OW43955   3.310  10.162   3.245
13983SOL    HW143956   3.270  10.234   3.194
13983SOL    HW243957   3.405  10.181   3.236
13984SOL     OW43958   1.907   9.470   2.160
13984SOL    HW143959   1.901   9.557   2.120
13984SOL    HW243960   1.993   9.438   2.128
13985SOL     OW43961   3.050  10.629   1.984
13985SOL    HW143962   2.969  10.578   1.996
13985SOL    HW243963   3.079  10.642   2.076
13986SOL     OW43964   2.487  10.136   3.288
13986SOL    HW143965   2.546  10.212   3.275
13986SOL    HW243966   2.552  10.065   3.299
13987SOL     OW43967   3.362  11.065   2.830
13987SOL    HW143968   3.391   0.016   2.754
13987SOL    HW243969   3.441  11.013   2.849
13988SOL     OW43970   2.602   9.855   3.555
13988SOL    HW143971   2.620   9.917   3.628
13988SOL    HW243972   2.607   9.768   3.596
13989SOL     OW43973   3.333  10.485   3.502
13989SOL    HW143974   3.322  10.489   3.599
13989SOL    HW243975   3.430  10.494   3.493
13990SOL     OW43976   3.558  10.193   3.092
13990SOL    HW143977   3.541  10.103   3.058
13990SOL    HW243978   3.522  10.252   3.023
13991SOL     OW43979   3.064   9.633   2.326
13991SOL    HW143980   3.109   9.553   2.292
13991SOL    HW243981   3.137   9.670   2.376
13992SOL     OW43982   2.451  10.044   2.529
13992SOL    HW143983   2.495  10.128   2.509
13992SOL    HW243984   2.378  10.044   2.465
13993SOL     OW43985   3.629   9.682   3.505
13993SOL    HW143986   3.599   9.691   3.412
13993SOL    HW243987   3.552   9.638   3.544
13994SOL     OW43988   3.591  10.232   3.355
13994SOL    HW143989   3.600  10.327   3.364
13994SOL    HW243990   3.610  10.218   3.260
13995SOL     OW43991   2.678  10.685   1.895
13995SOL    HW143992   2.677  10.718   1.987
13995SOL    HW243993   2.739  10.745   1.850
13996SOL     OW43994   2.748  10.258   2.711
13996SOL    HW143995   2.798  10.189   2.757
13996SOL    HW243996   2.716  10.314   2.784
13997SOL     OW43997   2.957  10.305   1.961
13997SOL    HW143998   2.925  10.358   1.886
13997SOL    HW243999   3.027  10.251   1.920
13998SOL     OW44000   3.700  10.932   2.729
13998SOL    HW144001   3.643  10.896   2.660
13998SOL    HW244002   3.729  10.852   2.775
13999SOL     OW44003   2.125  10.620   3.732
13999SOL    HW144004   2.048  10.572   3.701
13999SOL    HW244005   2.113  10.614   3.828
14000SOL     OW44006   1.946  10.571   2.517
14000SOL    HW144007   1.969  10.528   2.601
14000SOL    HW244008   1.993  10.515   2.453
14001SOL     OW44009   2.545  10.720   3.464
14001SOL    HW144010   2.484  10.663   3.515
14001SOL    HW244011   2.531  10.806   3.507
14002SOL     OW44012   3.685   9.480   3.095
14002SOL    HW144013   3.694   9.386   3.109
14002SOL    HW244014   3.692   9.486   2.997
14003SOL     OW44015   2.306   9.737   2.392
14003SOL    HW144016   2.343   9.663   2.343
14003SOL    HW244017   2.253   9.694   2.462
14004SOL     OW44018   3.563  10.780   2.954
14004SOL    HW144019   3.486  10.760   2.897
14004SOL    HW244020   3.573  10.698   3.004
14005SOL     OW44021   2.195   9.847   3.145
14005SOL    HW144022   2.268   9.808   3.196
14005SOL    HW244023   2.212   9.817   3.054
14006SOL     OW44024   2.663  10.911   2.570
14006SOL    HW144025   2.669  10.980   2.500
14006SOL    HW244026   2.585  10.860   2.545
14007SOL     OW44027   3.288   9.556   2.951
14007SOL    HW144028   3.313   9.474   2.995
14007SOL    HW244029   3.238   9.604   3.021
14008SOL     OW44030   2.878   9.315   3.013
14008SOL    HW144031   2.823   9.241   2.986
14008SOL    HW244032   2.968   9.275   3.011
14009SOL     OW44033   2.663  10.646   2.179
14009SOL    HW144034   2.615  10.562   2.175
14009SOL    HW244035   2.734  10.622   2.238
14010SOL     OW44036   2.461  10.844   3.131
14010SOL    HW144037   2.465  10.930   3.173
14010SOL    HW244038   2.551  10.835   3.095
14011SOL     OW44039   3.178   9.334   2.054
14011SOL    HW144040   3.189   9.275   1.978
14011SOL    HW244041   3.087   9.309   2.084
14012SOL     OW44042   3.464   9.522   2.722
14012SOL    HW144043   3.393   9.514   2.788
14012SOL    HW244044   3.429   9.590   2.662
14013SOL     OW44045   1.899  10.386   2.199
14013SOL    HW144046   1.988  10.376   2.162
14013SOL    HW244047   1.880  10.293   2.223
14014SOL     OW44048   2.095   9.939   3.847
14014SOL    HW144049   2.005   9.926   3.881
14014SOL    HW244050   2.090   9.916   3.753
14015SOL     OW44051   2.089   9.588   4.719
14015SOL    HW144052   2.110   9.566   4.812
14015SOL    HW244053   2.000   9.548   4.711
14016SOL     OW44054   1.862   9.716   4.346
14016SOL    HW144055   1.780   9.743   4.393
14016SOL    HW244056   1.835   9.630   4.311
14017SOL     OW44057   2.429  10.584   4.905
14017SOL    HW144058   2.347  10.576   4.854
14017SOL    HW244059   2.418  10.673   4.943
14018SOL     OW44060   3.427  10.825   4.434
14018SOL    HW144061   3.374  10.820   4.516
14018SOL    HW244062   3.360  10.828   4.363
14019SOL     OW44063   2.992   9.981   4.436
14019SOL    HW144064   3.026  10.069   4.409
14019SOL    HW244065   2.949  10.002   4.520
14020SOL     OW44066   3.631   9.911   3.959
14020SOL    HW144067   3.616   9.900   3.863
14020SOL    HW244068   3.579   9.837   3.995
14021SOL     OW44069   2.615  10.457   4.740
14021SOL    HW144070   2.551  10.495   4.804
14021SOL    HW244071   2.652  10.539   4.702
14022SOL     OW44072   2.555  10.334   4.379
14022SOL    HW144073   2.616  10.318   4.452
14022SOL    HW244074   2.483  10.384   4.421
14023SOL     OW44075   2.583  10.457   5.524
14023SOL    HW144076   2.611  10.546   5.552
14023SOL    HW244077   2.496  10.474   5.483
14024SOL     OW44078   2.191  10.756   4.794
14024SOL    HW144079   2.119  10.727   4.737
14024SOL    HW244080   2.247  10.809   4.735
14025SOL     OW44081   3.326  10.802   5.106
14025SOL    HW144082   3.341  10.896   5.126
14025SOL    HW244083   3.253  10.781   5.167
14026SOL     OW44084   2.299   9.704   5.245
14026SOL    HW144085   2.374   9.643   5.239
14026SOL    HW244086   2.222   9.648   5.225
14027SOL     OW44087   3.481   9.766   4.464
14027SOL    HW144088   3.405   9.787   4.408
14027SOL    HW244089   3.485   9.844   4.520
14028SOL     OW44090   3.010  10.651   5.402
14028SOL    HW144091   3.033  10.660   5.495
14028SOL    HW244092   2.956  10.569   5.403
14029SOL     OW44093   2.108  10.753   4.241
14029SOL    HW144094   2.148  10.837   4.266
14029SOL    HW244095   2.051  10.730   4.315
14030SOL     OW44096   2.135  10.404   4.629
14030SOL    HW144097   2.130  10.329   4.691
14030SOL    HW244098   2.080  10.471   4.673
14031SOL     OW44099   2.424  10.304   3.834
14031SOL    HW144100   2.479  10.347   3.765
14031SOL    HW244101   2.467  10.338   3.915
14032SOL     OW44102   3.468   9.436   5.216
14032SOL    HW144103   3.460   9.517   5.164
14032SOL    HW244104   3.463   9.471   5.307
14033SOL     OW44105   1.974   9.964   4.285
14033SOL    HW144106   1.944   9.873   4.301
14033SOL    HW244107   1.968  10.003   4.375
14034SOL     OW44108   1.920  10.914   3.836
14034SOL    HW144109   1.909  10.819   3.856
14034SOL    HW244110   1.889  10.956   3.917
14035SOL     OW44111   3.539  10.239   4.374
14035SOL    HW144112   3.609  10.194   4.325
14035SOL    HW244113   3.501  10.297   4.306
14036SOL     OW44114   3.514  10.427   4.166
14036SOL    HW144115   3.606  10.417   4.135
14036SOL    HW244116   3.524  10.489   4.241
14037SOL     OW44117   1.993  10.048   5.307
14037SOL    HW144118   2.087  10.068   5.319
14037SOL    HW244119   1.952  10.131   5.334
14038SOL     OW44120   2.455  10.708   4.483
14038SOL    HW144121   2.417  10.618   4.493
14038SOL    HW244122   2.451  10.717   4.386
14039SOL     OW44123   3.159  10.550   5.147
14039SOL    HW144124   3.183  10.473   5.093
14039SOL    HW244125   3.209  10.533   5.229
14040SOL     OW44126   2.700   9.311   4.220
14040SOL    HW144127   2.728   9.403   4.209
14040SOL    HW244128   2.603   9.321   4.227
14041SOL     OW44129   2.043  10.288   4.977
14041SOL    HW144130   2.133  10.250   4.975
14041SOL    HW244131   1.989  10.219   4.936
14042SOL     OW44132   3.404  10.281   3.920
14042SOL    HW144133   3.324  10.237   3.956
14042SOL    HW244134   3.449  10.309   4.001
14043SOL     OW44135   3.054  11.099   5.351
14043SOL    HW144136   3.063   0.066   5.282
14043SOL    HW244137   3.073  11.018   5.301
14044SOL     OW44138   2.205   9.540   5.498
14044SOL    HW144139   2.267   9.612   5.516
14044SOL    HW244140   2.125   9.570   5.544
14045SOL     OW44141   3.329  10.734   4.687
14045SOL    HW144142   3.265  10.738   4.761
14045SOL    HW244143   3.306  10.648   4.646
14046SOL     OW44144   2.450  10.019   3.982
14046SOL    HW144145   2.453  10.107   3.943
14046SOL    HW244146   2.378  10.029   4.047
14047SOL     OW44147   3.134   9.635   4.629
14047SOL    HW144148   3.043   9.606   4.652
14047SOL    HW244149   3.187   9.597   4.702
14048SOL     OW44150   3.439  10.945   4.038
14048SOL    HW144151   3.487  11.024   4.064
14048SOL    HW244152   3.425  10.957   3.942
14049SOL     OW44153   2.679   9.929   5.168
14049SOL    HW144154   2.654   9.901   5.258
14049SOL    HW244155   2.624   9.870   5.115
14050SOL     OW44156   3.265   9.787   5.405
14050SOL    HW144157   3.270   9.834   5.491
14050SOL    HW244158   3.318   9.708   5.423
14051SOL     OW44159   2.882  10.254   5.267
14051SOL    HW144160   2.899  10.159   5.278
14051SOL    HW244161   2.798  10.254   5.218
14052SOL     OW44162   2.842   9.712   4.957
14052SOL    HW144163   2.763   9.732   5.009
14052SOL    HW244164   2.806   9.674   4.877
14053SOL     OW44165   2.901   9.996   4.134
14053SOL    HW144166   2.914  10.011   4.229
14053SOL    HW244167   2.813   9.952   4.133
14054SOL     OW44168   1.964  10.122   4.519
14054SOL    HW144169   2.038  10.123   4.582
14054SOL    HW244170   1.914  10.201   4.545
14055SOL     OW44171   1.948   0.054   5.303
14055SOL    HW144172   1.976   0.027   5.393
14055SOL    HW244173   1.857   0.026   5.300
14056SOL     OW44174   2.743   9.672   3.939
14056SOL    HW144175   2.776   9.731   3.870
14056SOL    HW244176   2.773   9.587   3.908
14057SOL     OW44177   3.581   9.890   5.557
14057SOL    HW144178   3.540   9.961   5.504
14057SOL    HW244179   3.603   9.826   5.488
14058SOL     OW44180   3.234  10.458   4.276
14058SOL    HW144181   3.316  10.463   4.225
14058SOL    HW244182   3.174  10.512   4.224
14059SOL     OW44183   2.410   9.502   4.621
14059SOL    HW144184   2.419   9.516   4.717
14059SOL    HW244185   2.394   9.592   4.588
14060SOL     OW44186   2.863  10.779   4.211
14060SOL    HW144187   2.788  10.805   4.155
14060SOL    HW244188   2.830  10.802   4.299
14061SOL     OW44189   2.198   0.002   4.616
14061SOL    HW144190   2.255  11.025   4.622
14061SOL    HW244191   2.264   0.074   4.607
14062SOL     OW44192   3.657  10.376   4.633
14062SOL    HW144193   3.609  10.363   4.549
14062SOL    HW244194   3.585  10.373   4.699
14063SOL     OW44195   3.075  10.862   5.225
14063SOL    HW144196   3.067  10.786   5.285
14063SOL    HW244197   3.017  10.834   5.152
14064SOL     OW44198   2.167  10.261   3.972
14064SOL    HW144199   2.251  10.283   3.929
14064SOL    HW244200   2.139  10.183   3.922
14065SOL     OW44201   3.340  10.054   4.441
14065SOL    HW144202   3.329  10.016   4.530
14065SOL    HW244203   3.414  10.115   4.452
14066SOL     OW44204   2.335  10.558   5.441
14066SOL    HW144205   2.287  10.576   5.357
14066SOL    HW244206   2.264  10.566   5.505
14067SOL     OW44207   2.942  11.076   3.974
14067SOL    HW144208   2.867  11.043   4.026
14067SOL    HW244209   2.940  11.024   3.894
14068SOL     OW44210   2.036   9.601   5.218
14068SOL    HW144211   1.966   9.658   5.253
14068SOL    HW244212   2.026   9.521   5.271
14069SOL     OW44213   3.484  10.691   3.805
14069SOL    HW144214   3.429  10.767   3.829
14069SOL    HW244215   3.417  10.622   3.787
14070SOL     OW44216   3.258   9.444   4.170
14070SOL    HW144217   3.252   9.392   4.089
14070SOL    HW244218   3.354   9.453   4.182
14071SOL     OW44219   2.244  10.013   4.179
14071SOL    HW144220   2.271   9.922   4.203
14071SOL    HW244221   2.149  10.010   4.200
14072SOL     OW44222   3.400   9.560   5.452
14072SOL    HW144223   3.399   9.570   5.550
14072SOL    HW244224   3.339   9.485   5.443
14073SOL     OW44225   2.494   9.447   3.815
14073SOL    HW144226   2.563   9.386   3.844
14073SOL    HW244227   2.443   9.391   3.752
14074SOL     OW44228   2.636   9.571   5.453
14074SOL    HW144229   2.715   9.516   5.466
14074SOL    HW244230   2.586   9.556   5.534
14075SOL     OW44231   2.763  10.843   4.889
14075SOL    HW144232   2.740  10.798   4.805
14075SOL    HW244233   2.815  10.776   4.936
14076SOL     OW44234   3.199   9.893   5.161
14076SOL    HW144235   3.239   9.863   5.245
14076SOL    HW244236   3.249   9.973   5.140
14077SOL     OW44237   2.697  10.702   4.656
14077SOL    HW144238   2.781  10.693   4.608
14077SOL    HW244239   2.633  10.716   4.584
14078SOL     OW44240   2.797   9.826   4.630
14078SOL    HW144241   2.770   9.817   4.535
14078SOL    HW244242   2.828   9.736   4.648
14079SOL     OW44243   2.434   9.355   4.220
14079SOL    HW144244   2.356   9.365   4.279
14079SOL    HW244245   2.422   9.434   4.163
14080SOL     OW44246   3.308  10.488   3.770
14080SOL    HW144247   3.339  10.414   3.826
14080SOL    HW244248   3.214  10.491   3.791
14081SOL     OW44249   2.144   9.347   3.913
14081SOL    HW144250   2.203   9.421   3.892
14081SOL    HW244251   2.206   9.284   3.954
14082SOL     OW44252   2.793   9.566   4.212
14082SOL    HW144253   2.773   9.615   4.130
14082SOL    HW244254   2.889   9.580   4.220
14083SOL     OW44255   2.956   9.994   5.195
14083SOL    HW144256   2.890   9.923   5.203
14083SOL    HW244257   3.040   9.946   5.197
14084SOL     OW44258   3.104  10.878   4.520
14084SOL    HW144259   3.058  10.957   4.491
14084SOL    HW244260   3.164  10.913   4.587
14085SOL     OW44261   2.331  10.477   4.462
14085SOL    HW144262   2.260  10.448   4.524
14085SOL    HW244263   2.295  10.447   4.376
14086SOL     OW44264   2.921   9.844   3.746
14086SOL    HW144265   2.877   9.930   3.731
14086SOL    HW244266   2.986   9.862   3.815
14087SOL     OW44267   1.926   9.867   5.116
14087SOL    HW144268   2.019   9.841   5.102
14087SOL    HW244269   1.936   9.944   5.176
14088SOL     OW44270   2.430   9.539   4.889
14088SOL    HW144271   2.474   9.478   4.950
14088SOL    HW244272   2.337   9.529   4.916
14089SOL     OW44273   2.731   9.781   4.383
14089SOL    HW144274   2.678   9.829   4.318
14089SOL    HW244275   2.755   9.701   4.335
14090SOL     OW44276   2.888   9.385   4.485
14090SOL    HW144277   2.842   9.366   4.402
14090SOL    HW244278   2.865   9.306   4.538
14091SOL     OW44279   3.285  10.490   4.593
14091SOL    HW144280   3.219  10.422   4.611
14091SOL    HW244281   3.293  10.484   4.496
14092SOL     OW44282   3.339   9.903   4.703
14092SOL    HW144283   3.289   9.821   4.713
14092SOL    HW244284   3.407   9.897   4.772
14093SOL     OW44285   3.698  10.127   4.125
14093SOL    HW144286   3.757  10.073   4.180
14093SOL    HW244287   3.685  10.069   4.048
14094SOL     OW44288   2.350  10.741   3.903
14094SOL    HW144289   2.280  10.707   3.963
14094SOL    HW244290   2.311  10.716   3.818
14095SOL     OW44291   3.543  10.577   4.388
14095SOL    HW144292   3.638  10.595   4.397
14095SOL    HW244293   3.503  10.664   4.408
14096SOL     OW44294   3.262   9.906   3.785
14096SOL    HW144295   3.216   9.872   3.864
14096SOL    HW244296   3.352   9.872   3.797
14097SOL     OW44297   2.386   9.545   4.038
14097SOL    HW144298   2.430   9.517   3.955
14097SOL    HW244299   2.354   9.633   4.012
14098SOL     OW44300   3.602  10.522   5.331
14098SOL    HW144301   3.691  10.496   5.299
14098SOL    HW244302   3.612  10.619   5.336
14099SOL     OW44303   2.917  10.684   5.082
14099SOL    HW144304   2.832  10.644   5.109
14099SOL    HW244305   2.983  10.623   5.122
14100SOL     OW44306   3.452  10.971   5.369
14100SOL    HW144307   3.457  11.035   5.297
14100SOL    HW244308   3.536  10.923   5.361
14101SOL     OW44309   2.975  10.514   4.840
14101SOL    HW144310   2.906  10.553   4.894
14101SOL    HW244311   2.960  10.557   4.754
14102SOL     OW44312   3.452  10.395   4.809
14102SOL    HW144313   3.457  10.460   4.881
14102SOL    HW244314   3.396  10.440   4.744
14103SOL     OW44315   2.776   9.412   5.121
14103SOL    HW144316   2.808   9.387   5.033
14103SOL    HW244317   2.854   9.460   5.157
14104SOL     OW44318   2.856  10.438   5.464
14104SOL    HW144319   2.760  10.438   5.482
14104SOL    HW244320   2.864  10.364   5.401
14105SOL     OW44321   2.564  10.381   4.054
14105SOL    HW144322   2.550  10.356   4.147
14105SOL    HW244323   2.646  10.331   4.032
14106SOL     OW44324   2.280  10.122   4.986
14106SOL    HW144325   2.354  10.123   5.050
14106SOL    HW244326   2.239  10.036   5.004
14107SOL     OW44327   3.137   9.702   4.982
14107SOL    HW144328   3.154   9.773   5.047
14107SOL    HW244329   3.044   9.717   4.958
14108SOL     OW44330   1.910  10.886   5.078
14108SOL    HW144331   1.879  10.949   5.012
14108SOL    HW244332   2.007  10.892   5.070
14109SOL     OW44333   2.230  10.392   4.225
14109SOL    HW144334   2.228  10.470   4.168
14109SOL    HW244335   2.212  10.320   4.163
14110SOL     OW44336   2.395   9.852   4.567
14110SOL    HW144337   2.425   9.905   4.490
14110SOL    HW244338   2.457   9.881   4.637
14111SOL     OW44339   3.096  10.661   4.107
14111SOL    HW144340   3.154  10.724   4.154
14111SOL    HW244341   3.008  10.695   4.135
14112SOL     OW44342   3.159  10.757   4.897
14112SOL    HW144343   3.217  10.769   4.974
14112SOL    HW244344   3.101  10.683   4.923
14113SOL     OW44345   3.439   9.916   4.191
14113SOL    HW144346   3.394   9.975   4.254
14113SOL    HW244347   3.482   9.978   4.130
14114SOL     OW44348   2.186  10.837   5.049
14114SOL    HW144349   2.178  10.801   4.959
14114SOL    HW244350   2.281  10.860   5.050
14115SOL     OW44351   2.298  10.032   5.353
14115SOL    HW144352   2.353  10.086   5.294
14115SOL    HW244353   2.352   9.952   5.360
14116SOL     OW44354   3.488  10.091   5.410
14116SOL    HW144355   3.397  10.113   5.382
14116SOL    HW244356   3.538  10.120   5.331
14117SOL     OW44357   2.855   9.414   5.466
14117SOL    HW144358   2.921   9.484   5.467
14117SOL    HW244359   2.906   9.343   5.423
14118SOL     OW44360   2.370   9.326   5.473
14118SOL    HW144361   2.324   9.268   5.410
14118SOL    HW244362   2.307   9.400   5.478
14119SOL     OW44363   2.436  10.217   4.751
14119SOL    HW144364   2.485  10.299   4.764
14119SOL    HW244365   2.398  10.199   4.839
14120SOL     OW44366   3.228  10.183   4.736
14120SOL    HW144367   3.143  10.146   4.710
14120SOL    HW244368   3.279  10.104   4.756
14121SOL     OW44369   3.088   9.833   3.992
14121SOL    HW144370   3.093   9.759   4.055
14121SOL    HW244371   3.025   9.891   4.039
14122SOL     OW44372   2.155   9.516   4.970
14122SOL    HW144373   2.112   9.546   5.052
14122SOL    HW244374   2.133   9.420   4.970
14123SOL     OW44375   1.912  10.622   4.996
14123SOL    HW144376   1.928  10.567   5.075
14123SOL    HW244377   1.908  10.712   5.031
14124SOL     OW44378   2.566   9.944   4.751
14124SOL    HW144379   2.655   9.917   4.723
14124SOL    HW244380   2.562  10.040   4.733
14125SOL     OW44381   2.192   9.388   4.324
14125SOL    HW144382   2.154   9.476   4.346
14125SOL    HW244383   2.186   9.343   4.410
14126SOL     OW44384   3.460   9.679   4.072
14126SOL    HW144385   3.495   9.613   4.133
14126SOL    HW244386   3.446   9.757   4.131
14127SOL     OW44387   2.904  10.059   4.695
14127SOL    HW144388   2.895  10.069   4.792
14127SOL    HW244389   2.875   9.967   4.681
14128SOL     OW44390   2.848  10.859   5.434
14128SOL    HW144391   2.834  10.910   5.354
14128SOL    HW244392   2.882  10.773   5.402
14129SOL     OW44393   3.693  10.835   5.327
14129SOL    HW144394   3.725  10.858   5.238
14129SOL    HW244395   3.776  10.837   5.378
14130SOL     OW44396   2.203  10.194   5.545
14130SOL    HW144397   2.284  10.233   5.581
14130SOL    HW244398   2.239  10.123   5.487
14131SOL     OW44399   3.366   9.561   3.851
14131SOL    HW144400   3.295   9.502   3.883
14131SOL    HW244401   3.402   9.599   3.934
14132SOL     OW44402   3.136  10.145   3.745
14132SOL    HW144403   3.175  10.057   3.763
14132SOL    HW244404   3.180  10.167   3.660
14133SOL     OW44405   2.948  10.636   4.574
14133SOL    HW144406   2.950  10.557   4.514
14133SOL    HW244407   3.011  10.698   4.533
14134SOL     OW44408   2.148  10.120   4.714
14134SOL    HW144409   2.242  10.141   4.706
14134SOL    HW244410   2.152  10.026   4.739
14135SOL     OW44411   2.179   9.846   4.722
14135SOL    HW144412   2.156   9.752   4.710
14135SOL    HW244413   2.251   9.856   4.655
14136SOL     OW44414   3.016   9.681   5.410
14136SOL    HW144415   2.971   9.728   5.483
14136SOL    HW244416   3.105   9.721   5.415
14137SOL     OW44417   3.019   9.532   5.187
14137SOL    HW144418   3.018   9.592   5.265
14137SOL    HW244419   3.067   9.583   5.121
14138SOL     OW44420   1.866  10.630   3.895
14138SOL    HW144421   1.774  10.653   3.868
14138SOL    HW244422   1.854  10.542   3.935
14139SOL     OW44423   2.376  10.906   4.656
14139SOL    HW144424   2.443  10.975   4.647
14139SOL    HW244425   2.412  10.836   4.599
14140SOL     OW44426   2.845  10.086   4.961
14140SOL    HW144427   2.900  10.058   5.037
14140SOL    HW244428   2.757  10.060   4.993
14141SOL     OW44429   1.896   9.830   4.833
14141SOL    HW144430   1.978   9.824   4.782
14141SOL    HW244431   1.929   9.849   4.921
14142SOL     OW44432   2.081   9.831   5.450
14142SOL    HW144433   2.143   9.789   5.388
14142SOL    HW244434   2.036   9.897   5.394
14143SOL     OW44435   3.254  10.225   5.372
14143SOL    HW144436   3.262  10.322   5.370
14143SOL    HW244437   3.218  10.205   5.284
14144SOL     OW44438   2.661   9.868   4.113
14144SOL    HW144439   2.675   9.801   4.043
14144SOL    HW244440   2.584   9.917   4.079
14145SOL     OW44441   3.519   9.925   4.918
14145SOL    HW144442   3.496   9.855   4.981
14145SOL    HW244443   3.603   9.891   4.881
14146SOL     OW44444   2.093  10.838   5.456
14146SOL    HW144445   2.075  10.905   5.523
14146SOL    HW244446   2.107  10.758   5.509
14147SOL     OW44447   2.540   9.793   4.986
14147SOL    HW144448   2.499   9.713   4.951
14147SOL    HW244449   2.538   9.854   4.910
14148SOL     OW44450   2.305   9.782   3.924
14148SOL    HW144451   2.368   9.856   3.929
14148SOL    HW244452   2.222   9.831   3.912
14149SOL     OW44453   1.972  10.442   5.190
14149SOL    HW144454   1.995  10.391   5.271
14149SOL    HW244455   2.002  10.383   5.118
14150SOL     OW44456   3.182  10.332   4.969
14150SOL    HW144457   3.207  10.290   4.884
14150SOL    HW244458   3.105  10.384   4.940
14151SOL     OW44459   3.169  10.180   4.017
14151SOL    HW144460   3.093  10.142   4.063
14151SOL    HW244461   3.146  10.172   3.923
14152SOL     OW44462   3.615  11.028   4.864
14152SOL    HW144463   3.679  11.037   4.793
14152SOL    HW244464   3.592  10.932   4.856
14153SOL     OW44465   3.109  11.022   4.828
14153SOL    HW144466   3.200  11.036   4.799
14153SOL    HW244467   3.107  10.926   4.842
14154SOL     OW44468   1.966  10.573   4.738
14154SOL    HW144469   1.940  10.590   4.832
14154SOL    HW244470   1.893  10.517   4.708
14155SOL     OW44471   2.560  10.962   5.445
14155SOL    HW144472   2.492  11.030   5.460
14155SOL    HW244473   2.627  11.011   5.397
14156SOL     OW44474   3.541   9.453   4.219
14156SOL    HW144475   3.619   9.438   4.164
14156SOL    HW244476   3.540   9.373   4.275
14157SOL     OW44477   3.253  10.874   4.212
14157SOL    HW144478   3.325  10.893   4.149
14157SOL    HW244479   3.207  10.958   4.215
14158SOL     OW44480   2.006   0.001   5.565
14158SOL    HW144481   1.957  11.027   5.604
14158SOL    HW244482   2.055   0.030   5.643
14159SOL     OW44483   3.121  10.209   4.382
14159SOL    HW144484   3.200  10.154   4.400
14159SOL    HW244485   3.161  10.290   4.345
14160SOL     OW44486   2.652  10.586   5.128
14160SOL    HW144487   2.628  10.630   5.213
14160SOL    HW244488   2.565  10.583   5.086
14161SOL     OW44489   2.530  10.931   3.862
14161SOL    HW144490   2.542  10.913   3.768
14161SOL    HW244491   2.467  10.861   3.890
14162SOL     OW44492   3.702   9.476   4.696
14162SOL    HW144493   3.720   9.387   4.662
14162SOL    HW244494   3.615   9.498   4.656
14163SOL     OW44495   2.113   9.634   4.425
14163SOL    HW144496   2.028   9.677   4.406
14163SOL    HW244497   2.117   9.637   4.522
14164SOL     OW44498   3.073  10.927   3.747
14164SOL    HW144499   3.058  10.841   3.790
14164SOL    HW244500   2.999  10.933   3.685
14165SOL     OW44501   2.683  10.319   5.078
14165SOL    HW144502   2.747  10.308   5.006
14165SOL    HW244503   2.681  10.416   5.091
14166SOL     OW44504   2.780  10.240   3.992
14166SOL    HW144505   2.856  10.274   3.941
14166SOL    HW244506   2.815  10.160   4.032
14167SOL     OW44507   3.358  10.951   3.783
14167SOL    HW144508   3.263  10.936   3.769
14167SOL    HW244509   3.394  10.941   3.695
14168SOL     OW44510   2.204  10.592   5.212
14168SOL    HW144511   2.191  10.674   5.161
14168SOL    HW244512   2.125  10.540   5.189
14169SOL     OW44513   3.466  10.600   5.000
14169SOL    HW144514   3.531  10.586   5.071
14169SOL    HW244515   3.411  10.673   5.036
14170SOL     OW44516   2.920  10.405   4.447
14170SOL    HW144517   2.848  10.355   4.490
14170SOL    HW244518   2.971  10.335   4.405
14171SOL     OW44519   2.894   9.536   4.707
14171SOL    HW144520   2.884   9.488   4.622
14171SOL    HW244521   2.895   9.463   4.771
14172SOL     OW44522   2.465  10.785   4.219
14172SOL    HW144523   2.475  10.775   4.124
14172SOL    HW244524   2.429  10.877   4.224
14173SOL     OW44525   3.567   9.694   5.107
14173SOL    HW144526   3.635   9.765   5.109
14173SOL    HW244527   3.610   9.629   5.047
14174SOL     OW44528   2.118  10.654   4.002
14174SOL    HW144529   2.021  10.657   3.987
14174SOL    HW244530   2.123  10.692   4.093
14175SOL     OW44531   1.995  10.320   5.430
14175SOL    HW144532   1.919  10.307   5.490
14175SOL    HW244533   2.069  10.278   5.479
14176SOL     OW44534   2.536   9.506   5.204
14176SOL    HW144535   2.622   9.470   5.171
14176SOL    HW244536   2.563   9.540   5.291
14177SOL     OW44537   1.957   9.647   3.748
14177SOL    HW144538   1.864   9.649   3.726
14177SOL    HW244539   1.989   9.727   3.702
14178SOL     OW44540   3.322  10.146   5.106
14178SOL    HW144541   3.266  10.208   5.056
14178SOL    HW244542   3.410  10.179   5.084
14179SOL     OW44543   1.910   9.468   4.017
14179SOL    HW144544   1.907   9.557   3.979
14179SOL    HW244545   1.992   9.433   3.978
14180SOL     OW44546   3.040  10.642   3.841
14180SOL    HW144547   2.960  10.589   3.848
14180SOL    HW244548   3.071  10.642   3.934
14181SOL     OW44549   2.484  10.128   5.155
14181SOL    HW144550   2.540  10.207   5.148
14181SOL    HW244551   2.552  10.060   5.169
14182SOL     OW44552   3.366  11.057   4.695
14182SOL    HW144553   3.391   0.011   4.621
14182SOL    HW244554   3.450  11.046   4.741
14183SOL     OW44555   2.561   9.848   5.394
14183SOL    HW144556   2.608   9.916   5.447
14183SOL    HW244557   2.599   9.765   5.426
14184SOL     OW44558   3.330  10.485   5.362
14184SOL    HW144559   3.311  10.499   5.456
14184SOL    HW244560   3.425  10.505   5.357
14185SOL     OW44561   3.564  10.199   4.964
14185SOL    HW144562   3.553  10.110   4.926
14185SOL    HW244563   3.525  10.257   4.896
14186SOL     OW44564   3.072   9.645   4.195
14186SOL    HW144565   3.135   9.571   4.189
14186SOL    HW244566   3.109   9.696   4.270
14187SOL     OW44567   2.463  10.038   4.372
14187SOL    HW144568   2.497  10.129   4.369
14187SOL    HW244569   2.381  10.046   4.321
14188SOL     OW44570   3.628   9.683   5.365
14188SOL    HW144571   3.595   9.695   5.274
14188SOL    HW244572   3.557   9.629   5.404
14189SOL     OW44573   3.607  10.234   5.221
14189SOL    HW144574   3.609  10.330   5.220
14189SOL    HW244575   3.610  10.213   5.125
14190SOL     OW44576   2.681  10.679   3.758
14190SOL    HW144577   2.675  10.692   3.855
14190SOL    HW244578   2.730  10.756   3.728
14191SOL     OW44579   2.745  10.256   4.579
14191SOL    HW144580   2.797  10.188   4.626
14191SOL    HW244581   2.713  10.312   4.652
14192SOL     OW44582   2.966  10.331   3.821
14192SOL    HW144583   2.928  10.371   3.741
14192SOL    HW244584   3.021  10.259   3.783
14193SOL     OW44585   3.713  10.925   4.595
14193SOL    HW144586   3.655  10.893   4.524
14193SOL    HW244587   3.712  10.851   4.656
14194SOL     OW44588   2.114  10.613   5.595
14194SOL    HW144589   2.037  10.564   5.561
14194SOL    HW244590   2.102  10.603   5.691
14195SOL     OW44591   1.942  10.568   4.384
14195SOL    HW144592   1.968  10.526   4.467
14195SOL    HW244593   1.990  10.515   4.318
14196SOL     OW44594   2.535  10.713   5.333
14196SOL    HW144595   2.469  10.658   5.378
14196SOL    HW244596   2.529  10.798   5.380
14197SOL     OW44597   3.684   9.506   4.956
14197SOL    HW144598   3.693   9.411   4.968
14197SOL    HW244599   3.693   9.515   4.859
14198SOL     OW44600   2.302   9.754   4.246
14198SOL    HW144601   2.349   9.683   4.201
14198SOL    HW244602   2.261   9.709   4.322
14199SOL     OW44603   3.563  10.774   4.801
14199SOL    HW144604   3.482  10.770   4.746
14199SOL    HW244605   3.544  10.705   4.867
14200SOL     OW44606   2.191   9.838   5.013
14200SOL    HW144607   2.265   9.803   5.066
14200SOL    HW244608   2.214   9.814   4.922
14201SOL     OW44609   2.690  10.885   4.414
14201SOL    HW144610   2.692  10.967   4.360
14201SOL    HW244611   2.600  10.853   4.399
14202SOL     OW44612   3.288   9.548   4.826
14202SOL    HW144613   3.317   9.471   4.874
14202SOL    HW244614   3.239   9.601   4.893
14203SOL     OW44615   2.878   9.314   4.880
14203SOL    HW144616   2.821   9.243   4.847
14203SOL    HW244617   2.966   9.268   4.880
14204SOL     OW44618   2.668  10.639   4.032
14204SOL    HW144619   2.610  10.562   4.023
14204SOL    HW244620   2.713  10.618   4.115
14205SOL     OW44621   2.461  10.875   5.003
14205SOL    HW144622   2.478  10.963   5.037
14205SOL    HW244623   2.547  10.851   4.967
14206SOL     OW44624   3.174   9.345   3.888
14206SOL    HW144625   3.188   9.275   3.823
14206SOL    HW244626   3.087   9.317   3.926
14207SOL     OW44627   3.177   9.784   4.409
14207SOL    HW144628   3.110   9.855   4.411
14207SOL    HW244629   3.157   9.733   4.491
14208SOL     OW44630   3.459   9.521   4.596
14208SOL    HW144631   3.384   9.528   4.658
14208SOL    HW244632   3.455   9.604   4.545
14209SOL     OW44633   1.912  10.379   4.040
14209SOL    HW144634   2.001  10.361   4.007
14209SOL    HW244635   1.885  10.289   4.067
14210SOL     OW44636   2.099   9.945   5.713
14210SOL    HW144637   2.009   9.927   5.743
14210SOL    HW244638   2.097   9.926   5.618
14211SOL     OW44639   2.076   9.609   6.584
14211SOL    HW144640   2.102   9.578   6.673
14211SOL    HW244641   1.993   9.560   6.570
14212SOL     OW44642   1.858   9.711   6.211
14212SOL    HW144643   1.778   9.733   6.263
14212SOL    HW244644   1.833   9.627   6.171
14213SOL     OW44645   2.423  10.586   6.760
14213SOL    HW144646   2.340  10.600   6.712
14213SOL    HW244647   2.423  10.664   6.816
14214SOL     OW44648   3.425  10.839   6.292
14214SOL    HW144649   3.371  10.834   6.373
14214SOL    HW244650   3.359  10.844   6.220
14215SOL     OW44651   2.992   9.982   6.292
14215SOL    HW144652   3.028  10.070   6.269
14215SOL    HW244653   2.956   9.998   6.380
14216SOL     OW44654   3.637   9.923   5.820
14216SOL    HW144655   3.612   9.897   5.729
14216SOL    HW244656   3.596   9.851   5.872
14217SOL     OW44657   2.607  10.457   6.595
14217SOL    HW144658   2.543  10.494   6.658
14217SOL    HW244659   2.647  10.538   6.561
14218SOL     OW44660   2.751  10.071   7.392
14218SOL    HW144661   2.719  10.128   7.463
14218SOL    HW244662   2.771  10.133   7.320
14219SOL     OW44663   2.551  10.337   6.234
14219SOL    HW144664   2.611  10.310   6.306
14219SOL    HW244665   2.482  10.385   6.283
14220SOL     OW44666   2.576  10.449   7.385
14220SOL    HW144667   2.605  10.536   7.417
14220SOL    HW244668   2.490  10.471   7.345
14221SOL     OW44669   2.196  10.733   6.654
14221SOL    HW144670   2.111  10.711   6.611
14221SOL    HW244671   2.238  10.794   6.591
14222SOL     OW44672   3.326  10.801   6.969
14222SOL    HW144673   3.352  10.890   6.999
14222SOL    HW244674   3.257  10.778   7.032
14223SOL     OW44675   2.302   9.708   7.107
14223SOL    HW144676   2.378   9.649   7.099
14223SOL    HW244677   2.227   9.650   7.090
14224SOL     OW44678   3.479   9.775   6.325
14224SOL    HW144679   3.393   9.793   6.284
14224SOL    HW244680   3.479   9.836   6.400
14225SOL     OW44681   3.009  10.653   7.264
14225SOL    HW144682   3.039  10.661   7.356
14225SOL    HW244683   2.961  10.569   7.268
14226SOL     OW44684   2.123  10.763   6.113
14226SOL    HW144685   2.122  10.853   6.146
14226SOL    HW244686   2.058  10.718   6.170
14227SOL     OW44687   2.126  10.372   6.495
14227SOL    HW144688   2.123  10.359   6.592
14227SOL    HW244689   2.072  10.453   6.490
14228SOL     OW44690   2.419  10.314   5.700
14228SOL    HW144691   2.484  10.341   5.631
14228SOL    HW244692   2.468  10.338   5.781
14229SOL     OW44693   3.473   9.418   7.084
14229SOL    HW144694   3.467   9.492   7.021
14229SOL    HW244695   3.475   9.464   7.169
14230SOL     OW44696   1.977   9.959   6.150
14230SOL    HW144697   1.953   9.865   6.152
14230SOL    HW244698   1.966   9.985   6.242
14231SOL     OW44699   1.914  10.890   5.699
14231SOL    HW144700   1.905  10.796   5.719
14231SOL    HW244701   1.859  10.931   5.767
14232SOL     OW44702   3.541  10.240   6.238
14232SOL    HW144703   3.616  10.194   6.201
14232SOL    HW244704   3.509  10.293   6.164
14233SOL     OW44705   3.521  10.434   6.019
14233SOL    HW144706   3.615  10.427   5.996
14233SOL    HW244707   3.523  10.493   6.097
14234SOL     OW44708   1.989  10.043   7.157
14234SOL    HW144709   2.084  10.064   7.159
14234SOL    HW244710   1.951  10.123   7.196
14235SOL     OW44711   2.454  10.709   6.343
14235SOL    HW144712   2.419  10.618   6.352
14235SOL    HW244713   2.442  10.724   6.247
14236SOL     OW44714   3.167  10.545   7.007
14236SOL    HW144715   3.193  10.472   6.948
14236SOL    HW244716   3.218  10.523   7.088
14237SOL     OW44717   2.689   9.305   6.070
14237SOL    HW144718   2.731   9.392   6.084
14237SOL    HW244719   2.596   9.323   6.094
14238SOL     OW44720   2.062  10.275   6.807
14238SOL    HW144721   2.142  10.227   6.837
14238SOL    HW244722   1.990  10.212   6.821
14239SOL     OW44723   3.399  10.274   5.793
14239SOL    HW144724   3.314  10.238   5.828
14239SOL    HW244725   3.438  10.312   5.874
14240SOL     OW44726   3.054   0.003   7.212
14240SOL    HW144727   3.052   0.071   7.142
14240SOL    HW244728   3.076  11.024   7.161
14241SOL     OW44729   2.200   9.544   7.363
14241SOL    HW144730   2.260   9.614   7.390
14241SOL    HW244731   2.117   9.571   7.406
14242SOL     OW44732   3.339  10.741   6.547
14242SOL    HW144733   3.271  10.747   6.617
14242SOL    HW244734   3.316  10.656   6.504
14243SOL     OW44735   2.446  10.014   5.850
14243SOL    HW144736   2.463  10.090   5.792
14243SOL    HW244737   2.373  10.044   5.906
14244SOL     OW44738   3.123   9.672   6.536
14244SOL    HW144739   3.039   9.624   6.542
14244SOL    HW244740   3.184   9.616   6.588
14245SOL     OW44741   3.435  10.952   5.895
14245SOL    HW144742   3.482  11.031   5.926
14245SOL    HW244743   3.431  10.966   5.798
14246SOL     OW44744   2.663   9.933   7.050
14246SOL    HW144745   2.646   9.900   7.141
14246SOL    HW244746   2.618   9.866   6.996
14247SOL     OW44747   3.258   9.783   7.260
14247SOL    HW144748   3.271   9.837   7.340
14247SOL    HW244749   3.319   9.708   7.277
14248SOL     OW44750   2.829  10.210   7.161
14248SOL    HW144751   2.866  10.124   7.131
14248SOL    HW244752   2.784  10.241   7.080
14249SOL     OW44753   2.826   9.711   6.806
14249SOL    HW144754   2.734   9.716   6.834
14249SOL    HW244755   2.825   9.642   6.738
14250SOL     OW44756   2.905   9.991   5.996
14250SOL    HW144757   2.919  10.004   6.091
14250SOL    HW244758   2.816   9.950   5.994
14251SOL     OW44759   1.986  10.130   6.389
14251SOL    HW144760   2.006  10.205   6.330
14251SOL    HW244761   1.893  10.149   6.408
14252SOL     OW44762   2.750   9.689   5.798
14252SOL    HW144763   2.787   9.743   5.725
14252SOL    HW244764   2.779   9.601   5.773
14253SOL     OW44765   3.588   9.890   7.428
14253SOL    HW144766   3.546   9.965   7.381
14253SOL    HW244767   3.610   9.832   7.353
14254SOL     OW44768   3.231  10.462   6.144
14254SOL    HW144769   3.311  10.463   6.090
14254SOL    HW244770   3.171  10.520   6.094
14255SOL     OW44771   2.403   9.489   6.477
14255SOL    HW144772   2.419   9.508   6.571
14255SOL    HW244773   2.404   9.576   6.436
14256SOL     OW44774   2.868  10.783   6.075
14256SOL    HW144775   2.788  10.790   6.022
14256SOL    HW244776   2.835  10.800   6.165
14257SOL     OW44777   2.211   0.008   6.458
14257SOL    HW144778   2.262  11.030   6.481
14257SOL    HW244779   2.277   0.079   6.466
14258SOL     OW44780   3.661  10.377   6.476
14258SOL    HW144781   3.612  10.359   6.394
14258SOL    HW244782   3.591  10.372   6.544
14259SOL     OW44783   3.078  10.862   7.086
14259SOL    HW144784   3.072  10.783   7.144
14259SOL    HW244785   3.022  10.834   7.013
14260SOL     OW44786   2.170  10.259   5.830
14260SOL    HW144787   2.251  10.289   5.786
14260SOL    HW244788   2.146  10.183   5.775
14261SOL     OW44789   3.335  10.066   6.306
14261SOL    HW144790   3.330  10.025   6.394
14261SOL    HW244791   3.414  10.122   6.313
14262SOL     OW44792   2.339  10.549   7.298
14262SOL    HW144793   2.287  10.566   7.216
14262SOL    HW244794   2.271  10.565   7.366
14263SOL     OW44795   2.937  11.083   5.837
14263SOL    HW144796   2.882  11.018   5.883
14263SOL    HW244797   2.952  11.042   5.751
14264SOL     OW44798   2.039   9.602   7.083
14264SOL    HW144799   1.962   9.658   7.103
14264SOL    HW244800   2.021   9.523   7.137
14265SOL     OW44801   3.478  10.689   5.683
14265SOL    HW144802   3.440  10.777   5.669
14265SOL    HW244803   3.404  10.630   5.665
14266SOL     OW44804   3.274   9.472   5.987
14266SOL    HW144805   3.222   9.393   5.967
14266SOL    HW244806   3.334   9.438   6.054
14267SOL     OW44807   2.249  10.017   6.050
14267SOL    HW144808   2.269   9.922   6.067
14267SOL    HW244809   2.152  10.014   6.057
14268SOL     OW44810   3.403   9.563   7.312
14268SOL    HW144811   3.402   9.572   7.410
14268SOL    HW244812   3.342   9.489   7.300
14269SOL     OW44813   2.484   9.438   5.686
14269SOL    HW144814   2.557   9.379   5.710
14269SOL    HW244815   2.440   9.388   5.615
14270SOL     OW44816   2.634   9.568   7.319
14270SOL    HW144817   2.712   9.510   7.328
14270SOL    HW244818   2.584   9.548   7.399
14271SOL     OW44819   2.739  10.825   6.772
14271SOL    HW144820   2.734  10.792   6.680
14271SOL    HW244821   2.814  10.778   6.810
14272SOL     OW44822   3.194   9.908   7.020
14272SOL    HW144823   3.237   9.872   7.100
14272SOL    HW244824   3.250   9.984   6.997
14273SOL     OW44825   2.699  10.709   6.521
14273SOL    HW144826   2.785  10.697   6.476
14273SOL    HW244827   2.638  10.719   6.447
14274SOL     OW44828   2.798   9.838   6.497
14274SOL    HW144829   2.775   9.824   6.402
14274SOL    HW244830   2.832   9.751   6.522
14275SOL     OW44831   2.419   9.357   6.087
14275SOL    HW144832   2.340   9.359   6.143
14275SOL    HW244833   2.411   9.440   6.035
14276SOL     OW44834   3.300  10.485   5.627
14276SOL    HW144835   3.316  10.417   5.695
14276SOL    HW244836   3.206  10.506   5.642
14277SOL     OW44837   2.147   9.366   5.784
14277SOL    HW144838   2.207   9.437   5.757
14277SOL    HW244839   2.210   9.302   5.823
14278SOL     OW44840   2.794   9.567   6.083
14278SOL    HW144841   2.779   9.617   6.002
14278SOL    HW244842   2.891   9.563   6.086
14279SOL     OW44843   2.945   9.995   7.052
14279SOL    HW144844   2.895   9.913   7.056
14279SOL    HW244845   3.038   9.965   7.048
14280SOL     OW44846   3.103  10.881   6.389
14280SOL    HW144847   3.052  10.956   6.356
14280SOL    HW244848   3.151  10.920   6.462
14281SOL     OW44849   2.329  10.474   6.320
14281SOL    HW144850   2.259  10.446   6.381
14281SOL    HW244851   2.293  10.448   6.233
14282SOL     OW44852   2.926   9.833   5.611
14282SOL    HW144853   2.876   9.914   5.589
14282SOL    HW244854   2.986   9.861   5.682
14283SOL     OW44855   1.929   9.854   6.982
14283SOL    HW144856   2.023   9.834   6.969
14283SOL    HW244857   1.933   9.933   7.039
14284SOL     OW44858   2.427   9.548   6.755
14284SOL    HW144859   2.476   9.473   6.790
14284SOL    HW244860   2.337   9.529   6.785
14285SOL     OW44861   2.731   9.782   6.251
14285SOL    HW144862   2.698   9.819   6.169
14285SOL    HW244863   2.758   9.692   6.224
14286SOL     OW44864   2.817   9.392   6.361
14286SOL    HW144865   2.874   9.371   6.285
14286SOL    HW244866   2.826   9.310   6.413
14287SOL     OW44867   3.290  10.498   6.454
14287SOL    HW144868   3.227  10.427   6.472
14287SOL    HW244869   3.291  10.499   6.357
14288SOL     OW44870   3.312   9.893   6.584
14288SOL    HW144871   3.255   9.815   6.591
14288SOL    HW244872   3.385   9.873   6.644
14289SOL     OW44873   3.696  10.131   5.990
14289SOL    HW144874   3.751  10.076   6.049
14289SOL    HW244875   3.679  10.067   5.918
14290SOL     OW44876   2.347  10.750   5.776
14290SOL    HW144877   2.268  10.713   5.820
14290SOL    HW244878   2.355  10.687   5.703
14291SOL     OW44879   3.534  10.581   6.242
14291SOL    HW144880   3.630  10.595   6.251
14291SOL    HW244881   3.498  10.668   6.266
14292SOL     OW44882   3.274   9.893   5.658
14292SOL    HW144883   3.213   9.878   5.733
14292SOL    HW244884   3.335   9.819   5.673
14293SOL     OW44885   2.385   9.556   5.910
14293SOL    HW144886   2.430   9.517   5.832
14293SOL    HW244887   2.352   9.639   5.870
14294SOL     OW44888   3.599  10.519   7.180
14294SOL    HW144889   3.692  10.493   7.168
14294SOL    HW244890   3.606  10.615   7.190
14295SOL     OW44891   2.934  10.679   6.934
14295SOL    HW144892   2.852  10.644   6.974
14295SOL    HW244893   3.003  10.620   6.972
14296SOL     OW44894   3.454  10.978   7.238
14296SOL    HW144895   3.462  11.047   7.169
14296SOL    HW244896   3.536  10.927   7.227
14297SOL     OW44897   2.958  10.505   6.701
14297SOL    HW144898   2.917  10.567   6.762
14297SOL    HW244899   2.952  10.553   6.616
14298SOL     OW44900   3.459  10.394   6.661
14298SOL    HW144901   3.466  10.457   6.736
14298SOL    HW244902   3.403  10.443   6.599
14299SOL     OW44903   2.777   9.411   6.995
14299SOL    HW144904   2.803   9.391   6.903
14299SOL    HW244905   2.862   9.444   7.031
14300SOL     OW44906   2.862  10.430   7.333
14300SOL    HW144907   2.768  10.451   7.346
14300SOL    HW244908   2.858  10.355   7.271
14301SOL     OW44909   2.559  10.371   5.924
14301SOL    HW144910   2.552  10.350   6.019
14301SOL    HW244911   2.644  10.326   5.902
14302SOL     OW44912   2.281  10.111   6.847
14302SOL    HW144913   2.356  10.115   6.910
14302SOL    HW244914   2.246  10.021   6.863
14303SOL     OW44915   3.132   9.690   6.869
14303SOL    HW144916   3.150   9.771   6.919
14303SOL    HW244917   3.049   9.710   6.824
14304SOL     OW44918   1.917  10.881   6.920
14304SOL    HW144919   1.910  10.972   6.957
14304SOL    HW244920   2.013  10.867   6.924
14305SOL     OW44921   2.216  10.385   6.086
14305SOL    HW144922   2.221  10.463   6.030
14305SOL    HW244923   2.212  10.313   6.020
14306SOL     OW44924   2.397   9.852   6.430
14306SOL    HW144925   2.428   9.905   6.353
14306SOL    HW244926   2.469   9.866   6.493
14307SOL     OW44927   3.104  10.666   5.970
14307SOL    HW144928   3.162  10.732   6.013
14307SOL    HW244929   3.015  10.700   5.995
14308SOL     OW44930   3.167  10.772   6.757
14308SOL    HW144931   3.225  10.786   6.834
14308SOL    HW244932   3.108  10.701   6.786
14309SOL     OW44933   3.449   9.936   6.063
14309SOL    HW144934   3.393   9.981   6.129
14309SOL    HW244935   3.468  10.005   5.999
14310SOL     OW44936   2.190  10.825   6.911
14310SOL    HW144937   2.184  10.792   6.819
14310SOL    HW244938   2.282  10.857   6.912
14311SOL     OW44939   2.291  10.037   7.195
14311SOL    HW144940   2.355  10.085   7.139
14311SOL    HW244941   2.331   9.949   7.200
14312SOL     OW44942   3.493  10.082   7.278
14312SOL    HW144943   3.400  10.111   7.269
14312SOL    HW244944   3.534  10.127   7.201
14313SOL     OW44945   2.859   9.423   7.339
14313SOL    HW144946   2.911   9.502   7.320
14313SOL    HW244947   2.913   9.354   7.297
14314SOL     OW44948   2.371   9.328   7.334
14314SOL    HW144949   2.323   9.267   7.274
14314SOL    HW244950   2.309   9.404   7.336
14315SOL     OW44951   2.379  10.230   6.614
14315SOL    HW144952   2.457  10.288   6.619
14315SOL    HW244953   2.371  10.196   6.705
14316SOL     OW44954   3.227  10.178   6.612
14316SOL    HW144955   3.145  10.141   6.575
14316SOL    HW244956   3.278  10.098   6.626
14317SOL     OW44957   3.093   9.836   5.850
14317SOL    HW144958   3.098   9.760   5.910
14317SOL    HW244959   3.025   9.890   5.895
14318SOL     OW44960   2.154   9.511   6.831
14318SOL    HW144961   2.111   9.536   6.915
14318SOL    HW244962   2.130   9.416   6.825
14319SOL     OW44963   1.902  10.615   6.857
14319SOL    HW144964   1.927  10.566   6.936
14319SOL    HW244965   1.900  10.708   6.887
14320SOL     OW44966   2.578   9.951   6.617
14320SOL    HW144967   2.660   9.905   6.589
14320SOL    HW244968   2.587  10.039   6.579
14321SOL     OW44969   3.626  10.259   7.436
14321SOL    HW144970   3.583  10.189   7.384
14321SOL    HW244971   3.559  10.277   7.503
14322SOL     OW44972   2.173   9.369   6.198
14322SOL    HW144973   2.147   9.459   6.225
14322SOL    HW244974   2.176   9.323   6.285
14323SOL     OW44975   3.501   9.700   5.939
14323SOL    HW144976   3.502   9.621   5.996
14323SOL    HW244977   3.469   9.769   6.000
14324SOL     OW44978   2.923  10.067   6.558
14324SOL    HW144979   2.905  10.083   6.652
14324SOL    HW244980   2.890   9.975   6.547
14325SOL     OW44981   2.850  10.860   7.302
14325SOL    HW144982   2.841  10.915   7.224
14325SOL    HW244983   2.894  10.779   7.268
14326SOL     OW44984   3.692  10.840   7.194
14326SOL    HW144985   3.721  10.858   7.102
14326SOL    HW244986   3.778  10.835   7.240
14327SOL     OW44987   2.210  10.191   7.397
14327SOL    HW144988   2.292  10.222   7.438
14327SOL    HW244989   2.242  10.124   7.334
14328SOL     OW44990   3.363   9.583   5.713
14328SOL    HW144991   3.292   9.523   5.744
14328SOL    HW244992   3.409   9.603   5.796
14329SOL     OW44993   3.172  10.143   5.621
14329SOL    HW144994   3.197  10.048   5.627
14329SOL    HW244995   3.174  10.157   5.525
14330SOL     OW44996   2.949  10.639   6.436
14330SOL    HW144997   2.950  10.561   6.376
14330SOL    HW244998   3.006  10.704   6.392
14331SOL     OW44999   2.175   9.865   6.570
14331SOL    HW145000   2.143   9.773   6.564
14331SOL    HW245001   2.255   9.859   6.512
14332SOL     OW45002   3.015   9.679   7.289
14332SOL    HW145003   2.973   9.736   7.357
14332SOL    HW245004   3.104   9.721   7.281
14333SOL     OW45005   3.028   9.507   7.078
14333SOL    HW145006   3.027   9.572   7.150
14333SOL    HW245007   3.073   9.557   7.007
14334SOL     OW45008   1.868  10.622   5.770
14334SOL    HW145009   1.776  10.641   5.742
14334SOL    HW245010   1.861  10.532   5.806
14335SOL     OW45011   2.372  10.901   6.517
14335SOL    HW145012   2.449  10.958   6.527
14335SOL    HW245013   2.407  10.830   6.461
14336SOL     OW45014   2.837  10.092   6.822
14336SOL    HW145015   2.887  10.061   6.900
14336SOL    HW245016   2.750  10.057   6.842
14337SOL     OW45017   1.894   9.829   6.698
14337SOL    HW145018   1.978   9.818   6.650
14337SOL    HW245019   1.924   9.838   6.789
14338SOL     OW45020   2.083   9.828   7.313
14338SOL    HW145021   2.135   9.780   7.246
14338SOL    HW245022   2.038   9.895   7.259
14339SOL     OW45023   3.255  10.202   7.228
14339SOL    HW145024   3.278  10.296   7.236
14339SOL    HW245025   3.247  10.191   7.132
14340SOL     OW45026   2.665   9.882   5.975
14340SOL    HW145027   2.683   9.814   5.906
14340SOL    HW245028   2.591   9.931   5.934
14341SOL     OW45029   3.522   9.920   6.780
14341SOL    HW145030   3.500   9.847   6.839
14341SOL    HW245031   3.606   9.888   6.739
14342SOL     OW45032   2.095  10.842   7.325
14342SOL    HW145033   2.068  10.909   7.388
14342SOL    HW245034   2.105  10.763   7.380
14343SOL     OW45035   2.534   9.792   6.848
14343SOL    HW145036   2.497   9.709   6.813
14343SOL    HW245037   2.539   9.849   6.770
14344SOL     OW45038   2.303   9.779   5.786
14344SOL    HW145039   2.376   9.842   5.783
14344SOL    HW245040   2.226   9.837   5.770
14345SOL     OW45041   1.981  10.439   7.049
14345SOL    HW145042   1.998  10.386   7.130
14345SOL    HW245043   2.014  10.382   6.978
14346SOL     OW45044   3.183  10.339   6.823
14346SOL    HW145045   3.206  10.290   6.741
14346SOL    HW245046   3.102  10.385   6.794
14347SOL     OW45047   3.166  10.186   5.884
14347SOL    HW145048   3.087  10.147   5.926
14347SOL    HW245049   3.147  10.177   5.789
14348SOL     OW45050   3.623  11.023   6.733
14348SOL    HW145051   3.681  11.038   6.657
14348SOL    HW245052   3.598  10.929   6.721
14349SOL     OW45053   3.116  11.026   6.660
14349SOL    HW145054   3.204  11.048   6.625
14349SOL    HW245055   3.127  10.934   6.688
14350SOL     OW45056   1.968  10.575   6.600
14350SOL    HW145057   1.936  10.588   6.692
14350SOL    HW245058   1.890  10.536   6.559
14351SOL     OW45059   2.547  10.962   7.299
14351SOL    HW145060   2.474  11.027   7.304
14351SOL    HW245061   2.619  11.014   7.261
14352SOL     OW45062   3.556   9.453   6.088
14352SOL    HW145063   3.618   9.428   6.018
14352SOL    HW245064   3.543   9.369   6.135
14353SOL     OW45065   3.251  10.875   6.072
14353SOL    HW145066   3.321  10.893   6.006
14353SOL    HW245067   3.208  10.962   6.079
14354SOL     OW45068   2.002   0.029   7.433
14354SOL    HW145069   1.945  11.053   7.436
14354SOL    HW245070   2.048   0.023   7.518
14355SOL     OW45071   3.118  10.214   6.238
14355SOL    HW145072   3.197  10.159   6.261
14355SOL    HW245073   3.159  10.293   6.199
14356SOL     OW45074   2.674  10.578   7.015
14356SOL    HW145075   2.636  10.625   7.092
14356SOL    HW245076   2.605  10.595   6.950
14357SOL     OW45077   2.527  10.939   5.723
14357SOL    HW145078   2.551  10.919   5.631
14357SOL    HW245079   2.464  10.868   5.744
14358SOL     OW45080   3.709   9.471   6.552
14358SOL    HW145081   3.718   9.380   6.518
14358SOL    HW245082   3.621   9.499   6.518
14359SOL     OW45083   2.111   9.627   6.297
14359SOL    HW145084   2.025   9.666   6.274
14359SOL    HW245085   2.113   9.635   6.394
14360SOL     OW45086   3.060  10.938   5.617
14360SOL    HW145087   3.059  10.845   5.640
14360SOL    HW245088   2.998  10.943   5.542
14361SOL     OW45089   2.693  10.318   6.943
14361SOL    HW145090   2.742  10.312   6.860
14361SOL    HW245091   2.696  10.414   6.965
14362SOL     OW45092   2.793  10.250   5.886
14362SOL    HW145093   2.853  10.274   5.813
14362SOL    HW245094   2.806  10.155   5.894
14363SOL     OW45095   3.396  10.957   5.630
14363SOL    HW145096   3.302  10.941   5.618
14363SOL    HW245097   3.427  10.964   5.537
14364SOL     OW45098   2.204  10.593   7.073
14364SOL    HW145099   2.193  10.675   7.021
14364SOL    HW245100   2.121  10.546   7.056
14365SOL     OW45101   3.466  10.599   6.865
14365SOL    HW145102   3.515  10.579   6.946
14365SOL    HW245103   3.411  10.675   6.895
14366SOL     OW45104   2.915  10.410   6.303
14366SOL    HW145105   2.837  10.357   6.324
14366SOL    HW245106   2.974  10.344   6.263
14367SOL     OW45107   2.886   9.537   6.577
14367SOL    HW145108   2.861   9.496   6.491
14367SOL    HW245109   2.896   9.458   6.633
14368SOL     OW45110   2.478  10.823   6.086
14368SOL    HW145111   2.490  10.779   6.001
14368SOL    HW245112   2.423  10.899   6.062
14369SOL     OW45113   3.571   9.685   6.962
14369SOL    HW145114   3.639   9.754   6.959
14369SOL    HW245115   3.612   9.616   6.904
14370SOL     OW45116   2.121  10.649   5.874
14370SOL    HW145117   2.025  10.653   5.858
14370SOL    HW245118   2.128  10.688   5.963
14371SOL     OW45119   1.996  10.310   7.281
14371SOL    HW145120   1.920  10.304   7.343
14371SOL    HW245121   2.070  10.273   7.334
14372SOL     OW45122   2.530   9.491   7.071
14372SOL    HW145123   2.619   9.463   7.038
14372SOL    HW245124   2.553   9.522   7.160
14373SOL     OW45125   1.959   9.638   5.603
14373SOL    HW145126   1.864   9.649   5.595
14373SOL    HW245127   1.991   9.720   5.559
14374SOL     OW45128   3.315  10.155   6.962
14374SOL    HW145129   3.265  10.221   6.910
14374SOL    HW245130   3.407  10.179   6.942
14375SOL     OW45131   1.910   9.468   5.881
14375SOL    HW145132   1.907   9.553   5.835
14375SOL    HW245133   1.996   9.433   5.851
14376SOL     OW45134   3.051  10.636   5.702
14376SOL    HW145135   2.981  10.569   5.710
14376SOL    HW245136   3.076  10.649   5.796
14377SOL     OW45137   2.484  10.131   7.016
14377SOL    HW145138   2.541  10.210   7.011
14377SOL    HW245139   2.552  10.061   7.024
14378SOL     OW45140   3.365  11.064   6.549
14378SOL    HW145141   3.395   0.017   6.475
14378SOL    HW245142   3.449  11.047   6.595
14379SOL     OW45143   2.597   9.853   7.296
14379SOL    HW145144   2.634   9.913   7.364
14379SOL    HW245145   2.611   9.764   7.331
14380SOL     OW45146   3.332  10.467   7.220
14380SOL    HW145147   3.316  10.484   7.315
14380SOL    HW245148   3.429  10.481   7.214
14381SOL     OW45149   3.566  10.193   6.824
14381SOL    HW145150   3.558  10.103   6.788
14381SOL    HW245151   3.530  10.249   6.752
14382SOL     OW45152   3.071   9.652   6.048
14382SOL    HW145153   3.125   9.572   6.030
14382SOL    HW245154   3.115   9.686   6.127
14383SOL     OW45155   2.447  10.054   6.250
14383SOL    HW145156   2.493  10.137   6.231
14383SOL    HW245157   2.385  10.047   6.176
14384SOL     OW45158   3.630   9.685   7.225
14384SOL    HW145159   3.598   9.693   7.133
14384SOL    HW245160   3.557   9.636   7.266
14385SOL     OW45161   3.607  10.227   7.087
14385SOL    HW145162   3.607  10.323   7.091
14385SOL    HW245163   3.611  10.210   6.991
14386SOL     OW45164   2.687  10.691   5.624
14386SOL    HW145165   2.682  10.720   5.716
14386SOL    HW245166   2.743  10.758   5.581
14387SOL     OW45167   2.728  10.240   6.432
14387SOL    HW145168   2.797  10.181   6.468
14387SOL    HW245169   2.722  10.308   6.501
14388SOL     OW45170   2.962  10.342   5.685
14388SOL    HW145171   2.913  10.383   5.611
14388SOL    HW245172   2.986  10.259   5.643
14389SOL     OW45173   3.706  10.926   6.457
14389SOL    HW145174   3.649  10.890   6.388
14389SOL    HW245175   3.716  10.850   6.515
14390SOL     OW45176   2.122  10.618   7.465
14390SOL    HW145177   2.045  10.572   7.430
14390SOL    HW245178   2.107  10.610   7.561
14391SOL     OW45179   1.965  10.571   6.233
14391SOL    HW145180   1.944  10.526   6.316
14391SOL    HW245181   1.991  10.499   6.175
14392SOL     OW45182   2.534  10.712   7.194
14392SOL    HW145183   2.469  10.658   7.242
14392SOL    HW245184   2.522  10.800   7.235
14393SOL     OW45185   3.676   9.478   6.812
14393SOL    HW145186   3.683   9.382   6.815
14393SOL    HW245187   3.687   9.493   6.716
14394SOL     OW45188   2.282   9.759   6.116
14394SOL    HW145189   2.339   9.701   6.063
14394SOL    HW245190   2.249   9.700   6.186
14395SOL     OW45191   3.576  10.768   6.675
14395SOL    HW145192   3.491  10.757   6.627
14395SOL    HW245193   3.572  10.696   6.739
14396SOL     OW45194   2.195   9.845   6.872
14396SOL    HW145195   2.262   9.803   6.927
14396SOL    HW245196   2.212   9.808   6.784
14397SOL     OW45197   2.681  10.888   6.275
14397SOL    HW145198   2.683  10.963   6.211
14397SOL    HW245199   2.594  10.850   6.258
14398SOL     OW45200   3.288   9.550   6.693
14398SOL    HW145201   3.326   9.467   6.726
14398SOL    HW245202   3.246   9.589   6.772
14399SOL     OW45203   2.879   9.315   6.750
14399SOL    HW145204   2.824   9.247   6.710
14399SOL    HW245205   2.969   9.275   6.741
14400SOL     OW45206   2.666  10.649   5.898
14400SOL    HW145207   2.601  10.579   5.880
14400SOL    HW245208   2.733  10.600   5.946
14401SOL     OW45209   2.464  10.870   6.865
14401SOL    HW145210   2.477  10.953   6.912
14401SOL    HW245211   2.554  10.851   6.834
14402SOL     OW45212   3.162   9.365   5.722
14402SOL    HW145213   3.181   9.280   5.680
14402SOL    HW245214   3.077   9.342   5.766
14403SOL     OW45215   3.191   9.786   6.296
14403SOL    HW145216   3.117   9.848   6.281
14403SOL    HW245217   3.165   9.744   6.380
14404SOL     OW45218   3.469   9.545   6.465
14404SOL    HW145219   3.380   9.525   6.496
14404SOL    HW245220   3.457   9.622   6.406
14405SOL     OW45221   1.907  10.372   5.888
14405SOL    HW145222   1.997  10.352   5.857
14405SOL    HW245223   1.877  10.284   5.916
14406SOL     OW45224   2.098   9.956   7.582
14406SOL    HW145225   2.008   9.941   7.615
14406SOL    HW245226   2.095   9.931   7.489
14407SOL     OW45227   2.094   9.583   8.441
14407SOL    HW145228   2.111   9.562   8.535
14407SOL    HW245229   2.006   9.542   8.429
14408SOL     OW45230   1.855   9.718   8.074
14408SOL    HW145231   1.772   9.738   8.121
14408SOL    HW245232   1.834   9.631   8.037
14409SOL     OW45233   2.426  10.584   8.631
14409SOL    HW145234   2.342  10.576   8.583
14409SOL    HW245235   2.419  10.674   8.667
14410SOL     OW45236   3.415  10.834   8.161
14410SOL    HW145237   3.356  10.819   8.237
14410SOL    HW245238   3.354  10.829   8.084
14411SOL     OW45239   2.988   9.980   8.158
14411SOL    HW145240   3.027  10.064   8.126
14411SOL    HW245241   2.960  10.007   8.248
14412SOL     OW45242   3.644   9.917   7.687
14412SOL    HW145243   3.623   9.909   7.592
14412SOL    HW245244   3.591   9.845   7.725
14413SOL     OW45245   2.636  10.467   8.493
14413SOL    HW145246   2.556  10.498   8.539
14413SOL    HW245247   2.656  10.543   8.435
14414SOL     OW45248   2.739  10.063   9.245
14414SOL    HW145249   2.721  10.132   9.310
14414SOL    HW245250   2.758  10.115   9.164
14415SOL     OW45251   2.556  10.323   8.092
14415SOL    HW145252   2.645  10.359   8.111
14415SOL    HW245253   2.499  10.371   8.154
14416SOL     OW45254   2.577  10.447   9.241
14416SOL    HW145255   2.612  10.533   9.272
14416SOL    HW245256   2.489  10.473   9.208
14417SOL     OW45257   2.189  10.747   8.523
14417SOL    HW145258   2.112  10.714   8.474
14417SOL    HW245259   2.237  10.799   8.456
14418SOL     OW45260   3.322  10.789   8.829
14418SOL    HW145261   3.313  10.885   8.841
14418SOL    HW245262   3.257  10.755   8.892
14419SOL     OW45263   2.294   9.704   8.976
14419SOL    HW145264   2.363   9.637   8.964
14419SOL    HW245265   2.212   9.656   8.956
14420SOL     OW45266   3.484   9.763   8.193
14420SOL    HW145267   3.411   9.792   8.136
14420SOL    HW245268   3.478   9.828   8.263
14421SOL     OW45269   3.010  10.648   9.138
14421SOL    HW145270   3.038  10.648   9.231
14421SOL    HW245271   2.957  10.566   9.135
14422SOL     OW45272   2.092  10.774   7.972
14422SOL    HW145273   2.117  10.854   8.018
14422SOL    HW245274   2.041  10.725   8.038
14423SOL     OW45275   2.127  10.405   8.348
14423SOL    HW145276   2.133  10.335   8.414
14423SOL    HW245277   2.073  10.473   8.394
14424SOL     OW45278   2.425  10.301   7.557
14424SOL    HW145279   2.480  10.345   7.488
14424SOL    HW245280   2.468  10.336   7.638
14425SOL     OW45281   3.476   9.421   8.953
14425SOL    HW145282   3.480   9.498   8.894
14425SOL    HW245283   3.479   9.462   9.040
14426SOL     OW45284   1.973   9.958   8.008
14426SOL    HW145285   1.939   9.868   8.023
14426SOL    HW245286   1.965   9.997   8.097
14427SOL     OW45287   1.920  10.891   7.559
14427SOL    HW145288   1.906  10.796   7.576
14427SOL    HW245289   1.862  10.932   7.624
14428SOL     OW45290   3.549  10.236   8.102
14428SOL    HW145291   3.602  10.196   8.031
14428SOL    HW245292   3.494  10.298   8.052
14429SOL     OW45293   3.506  10.436   7.887
14429SOL    HW145294   3.598  10.421   7.859
14429SOL    HW245295   3.516  10.499   7.960
14430SOL     OW45296   1.990  10.056   9.031
14430SOL    HW145297   2.085  10.073   9.034
14430SOL    HW245298   1.955  10.139   9.069
14431SOL     OW45299   2.456  10.710   8.209
14431SOL    HW145300   2.420  10.619   8.217
14431SOL    HW245301   2.446  10.724   8.114
14432SOL     OW45302   3.158  10.553   8.877
14432SOL    HW145303   3.178  10.484   8.811
14432SOL    HW245304   3.209  10.523   8.954
14433SOL     OW45305   2.693   9.310   7.937
14433SOL    HW145306   2.725   9.402   7.930
14433SOL    HW245307   2.597   9.324   7.942
14434SOL     OW45308   2.041  10.292   8.703
14434SOL    HW145309   2.127  10.248   8.692
14434SOL    HW245310   1.979  10.233   8.658
14435SOL     OW45311   3.406  10.278   7.644
14435SOL    HW145312   3.321  10.237   7.672
14435SOL    HW245313   3.438  10.315   7.727
14436SOL     OW45314   3.077   0.011   9.072
14436SOL    HW145315   3.072   0.075   8.998
14436SOL    HW245316   3.085  11.028   9.024
14437SOL     OW45317   2.195   9.542   9.241
14437SOL    HW145318   2.256   9.616   9.248
14437SOL    HW245319   2.114   9.580   9.280
14438SOL     OW45320   3.342  10.735   8.416
14438SOL    HW145321   3.270  10.745   8.482
14438SOL    HW245322   3.321  10.648   8.376
14439SOL     OW45323   2.450  10.028   7.710
14439SOL    HW145324   2.459  10.115   7.668
14439SOL    HW245325   2.378  10.044   7.774
14440SOL     OW45326   3.135   9.627   8.344
14440SOL    HW145327   3.045   9.601   8.369
14440SOL    HW245328   3.188   9.591   8.419
14441SOL     OW45329   3.435  10.950   7.755
14441SOL    HW145330   3.494  11.024   7.768
14441SOL    HW245331   3.423  10.949   7.657
14442SOL     OW45332   2.680   9.922   8.895
14442SOL    HW145333   2.653   9.891   8.984
14442SOL    HW245334   2.623   9.868   8.837
14443SOL     OW45335   3.257   9.792   9.119
14443SOL    HW145336   3.265   9.848   9.199
14443SOL    HW245337   3.317   9.718   9.141
14444SOL     OW45338   2.823  10.203   9.027
14444SOL    HW145339   2.866  10.123   8.992
14444SOL    HW245340   2.781  10.239   8.946
14445SOL     OW45341   2.835   9.707   8.684
14445SOL    HW145342   2.749   9.725   8.724
14445SOL    HW245343   2.811   9.680   8.594
14446SOL     OW45344   2.914   9.987   7.854
14446SOL    HW145345   2.927  10.015   7.946
14446SOL    HW245346   2.826   9.945   7.859
14447SOL     OW45347   1.956  10.124   8.245
14447SOL    HW145348   2.027  10.124   8.311
14447SOL    HW245349   1.924  10.215   8.252
14448SOL     OW45350   1.937   0.059   9.026
14448SOL    HW145351   1.964   0.025   9.114
14448SOL    HW245352   1.841   0.048   9.026
14449SOL     OW45353   2.743   9.693   7.641
14449SOL    HW145354   2.795   9.751   7.583
14449SOL    HW245355   2.773   9.606   7.614
14450SOL     OW45356   3.580   9.887   9.292
14450SOL    HW145357   3.542   9.965   9.247
14450SOL    HW245358   3.609   9.835   9.216
14451SOL     OW45359   3.243  10.464   8.035
14451SOL    HW145360   3.302  10.464   7.958
14451SOL    HW245361   3.161  10.501   7.998
14452SOL     OW45362   2.401   9.492   8.347
14452SOL    HW145363   2.419   9.515   8.441
14452SOL    HW245364   2.383   9.579   8.308
14453SOL     OW45365   2.867  10.792   7.926
14453SOL    HW145366   2.777  10.813   7.900
14453SOL    HW245367   2.859  10.776   8.021
14454SOL     OW45368   2.211   0.005   8.334
14454SOL    HW145369   2.270  11.031   8.348
14454SOL    HW245370   2.273   0.081   8.339
14455SOL     OW45371   3.669  10.386   8.327
14455SOL    HW145372   3.621  10.362   8.246
14455SOL    HW245373   3.600  10.377   8.395
14456SOL     OW45374   3.077  10.871   8.949
14456SOL    HW145375   3.076  10.791   9.004
14456SOL    HW245376   3.017  10.842   8.878
14457SOL     OW45377   2.167  10.258   7.696
14457SOL    HW145378   2.251  10.279   7.654
14457SOL    HW245379   2.138  10.181   7.644
14458SOL     OW45380   3.353  10.041   8.163
14458SOL    HW145381   3.322  10.018   8.252
14458SOL    HW245382   3.417  10.112   8.181
14459SOL     OW45383   2.341  10.564   9.176
14459SOL    HW145384   2.293  10.573   9.091
14459SOL    HW245385   2.266  10.564   9.238
14460SOL     OW45386   2.958  11.094   7.705
14460SOL    HW145387   2.910  11.040   7.769
14460SOL    HW245388   2.960  11.039   7.625
14461SOL     OW45389   2.039   9.600   8.936
14461SOL    HW145390   1.960   9.654   8.953
14461SOL    HW245391   2.013   9.514   8.972
14462SOL     OW45392   3.484  10.688   7.534
14462SOL    HW145393   3.430  10.767   7.525
14462SOL    HW245394   3.419  10.617   7.512
14463SOL     OW45395   3.263   9.427   7.884
14463SOL    HW145396   3.261   9.378   7.800
14463SOL    HW245397   3.358   9.438   7.900
14464SOL     OW45398   2.244  10.012   7.913
14464SOL    HW145399   2.269   9.920   7.934
14464SOL    HW245400   2.148  10.008   7.928
14465SOL     OW45401   3.398   9.571   9.177
14465SOL    HW145402   3.397   9.573   9.275
14465SOL    HW245403   3.337   9.498   9.160
14466SOL     OW45404   2.488   9.445   7.542
14466SOL    HW145405   2.559   9.388   7.572
14466SOL    HW245406   2.443   9.389   7.475
14467SOL     OW45407   2.634   9.582   9.185
14467SOL    HW145408   2.714   9.527   9.197
14467SOL    HW245409   2.581   9.558   9.263
14468SOL     OW45410   2.755  10.845   8.625
14468SOL    HW145411   2.744  10.801   8.538
14468SOL    HW245412   2.815  10.785   8.673
14469SOL     OW45413   3.198   9.905   8.872
14469SOL    HW145414   3.236   9.874   8.956
14469SOL    HW245415   3.252   9.984   8.851
14470SOL     OW45416   2.694  10.720   8.388
14470SOL    HW145417   2.780  10.703   8.345
14470SOL    HW245418   2.632  10.719   8.313
14471SOL     OW45419   2.800   9.823   8.360
14471SOL    HW145420   2.781   9.820   8.263
14471SOL    HW245421   2.835   9.734   8.375
14472SOL     OW45422   2.423   9.352   7.949
14472SOL    HW145423   2.349   9.365   8.011
14472SOL    HW245424   2.414   9.433   7.894
14473SOL     OW45425   3.306  10.494   7.486
14473SOL    HW145426   3.336  10.420   7.542
14473SOL    HW245427   3.213  10.505   7.513
14474SOL     OW45428   2.146   9.358   7.632
14474SOL    HW145429   2.205   9.433   7.615
14474SOL    HW245430   2.207   9.295   7.677
14475SOL     OW45431   2.791   9.566   7.925
14475SOL    HW145432   2.776   9.623   7.848
14475SOL    HW245433   2.887   9.578   7.940
14476SOL     OW45434   2.955   9.999   8.916
14476SOL    HW145435   2.899   9.920   8.910
14476SOL    HW245436   3.046   9.965   8.902
14477SOL     OW45437   3.104  10.879   8.251
14477SOL    HW145438   3.054  10.955   8.220
14477SOL    HW245439   3.161  10.918   8.318
14478SOL     OW45440   2.333  10.477   8.184
14478SOL    HW145441   2.265  10.445   8.247
14478SOL    HW245442   2.296  10.446   8.099
14479SOL     OW45443   2.922   9.845   7.484
14479SOL    HW145444   2.883   9.932   7.466
14479SOL    HW245445   2.992   9.863   7.550
14480SOL     OW45446   1.929   9.867   8.856
14480SOL    HW145447   2.022   9.850   8.832
14480SOL    HW245448   1.937   9.948   8.910
14481SOL     OW45449   2.433   9.544   8.611
14481SOL    HW145450   2.477   9.473   8.660
14481SOL    HW245451   2.341   9.534   8.641
14482SOL     OW45452   2.742   9.775   8.105
14482SOL    HW145453   2.691   9.826   8.040
14482SOL    HW245454   2.753   9.691   8.059
14483SOL     OW45455   2.886   9.375   8.220
14483SOL    HW145456   2.842   9.356   8.136
14483SOL    HW245457   2.866   9.295   8.273
14484SOL     OW45458   3.290  10.489   8.320
14484SOL    HW145459   3.215  10.432   8.343
14484SOL    HW245460   3.286  10.482   8.222
14485SOL     OW45461   3.310   9.892   8.441
14485SOL    HW145462   3.259   9.810   8.449
14485SOL    HW245463   3.376   9.884   8.512
14486SOL     OW45464   3.688  10.129   7.855
14486SOL    HW145465   3.754  10.073   7.899
14486SOL    HW245466   3.666  10.072   7.778
14487SOL     OW45467   2.344  10.734   7.641
14487SOL    HW145468   2.272  10.698   7.697
14487SOL    HW245469   2.309  10.712   7.554
14488SOL     OW45470   3.552  10.583   8.109
14488SOL    HW145471   3.646  10.609   8.105
14488SOL    HW245472   3.506  10.664   8.136
14489SOL     OW45473   3.268   9.909   7.511
14489SOL    HW145474   3.220   9.875   7.589
14489SOL    HW245475   3.360   9.890   7.536
14490SOL     OW45476   2.386   9.552   7.770
14490SOL    HW145477   2.427   9.521   7.687
14490SOL    HW245478   2.354   9.639   7.740
14491SOL     OW45479   3.601  10.518   9.047
14491SOL    HW145480   3.694  10.494   9.035
14491SOL    HW245481   3.609  10.608   9.084
14492SOL     OW45482   2.918  10.692   8.811
14492SOL    HW145483   2.835  10.646   8.832
14492SOL    HW245484   2.987  10.630   8.840
14493SOL     OW45485   3.455  10.977   9.103
14493SOL    HW145486   3.458  11.031   9.022
14493SOL    HW245487   3.536  10.924   9.094
14494SOL     OW45488   3.002  10.530   8.559
14494SOL    HW145489   2.909  10.528   8.586
14494SOL    HW245490   2.993  10.567   8.469
14495SOL     OW45491   3.467  10.398   8.517
14495SOL    HW145492   3.464  10.460   8.593
14495SOL    HW245493   3.405  10.438   8.454
14496SOL     OW45494   2.785   9.398   8.853
14496SOL    HW145495   2.813   9.379   8.761
14496SOL    HW245496   2.864   9.443   8.888
14497SOL     OW45497   2.858  10.429   9.195
14497SOL    HW145498   2.764  10.450   9.211
14497SOL    HW245499   2.851  10.354   9.133
14498SOL     OW45500   2.561  10.375   7.776
14498SOL    HW145501   2.550  10.353   7.870
14498SOL    HW245502   2.638  10.320   7.753
14499SOL     OW45503   2.272  10.122   8.715
14499SOL    HW145504   2.350  10.120   8.774
14499SOL    HW245505   2.232  10.035   8.728
14500SOL     OW45506   3.141   9.699   8.704
14500SOL    HW145507   3.158   9.776   8.763
14500SOL    HW245508   3.048   9.713   8.678
14501SOL     OW45509   1.912  10.878   8.802
14501SOL    HW145510   1.882  10.950   8.746
14501SOL    HW245511   2.009  10.888   8.801
14502SOL     OW45512   2.225  10.392   7.947
14502SOL    HW145513   2.234  10.464   7.884
14502SOL    HW245514   2.219  10.313   7.890
14503SOL     OW45515   2.393   9.853   8.293
14503SOL    HW145516   2.419   9.908   8.216
14503SOL    HW245517   2.456   9.884   8.360
14504SOL     OW45518   3.098  10.666   7.828
14504SOL    HW145519   3.159  10.726   7.874
14504SOL    HW245520   3.012  10.697   7.860
14505SOL     OW45521   3.159  10.776   8.616
14505SOL    HW145522   3.216  10.773   8.695
14505SOL    HW245523   3.103  10.697   8.625
14506SOL     OW45524   3.440   9.926   7.918
14506SOL    HW145525   3.393   9.967   7.993
14506SOL    HW245526   3.467  10.003   7.867
14507SOL     OW45527   2.187  10.832   8.781
14507SOL    HW145528   2.178  10.795   8.691
14507SOL    HW245529   2.281  10.854   8.780
14508SOL     OW45530   2.295  10.035   9.064
14508SOL    HW145531   2.356  10.081   9.003
14508SOL    HW245532   2.331   9.945   9.062
14509SOL     OW45533   3.491  10.082   9.135
14509SOL    HW145534   3.400  10.114   9.129
14509SOL    HW245535   3.530  10.122   9.054
14510SOL     OW45536   2.856   9.429   9.201
14510SOL    HW145537   2.920   9.500   9.188
14510SOL    HW245538   2.902   9.355   9.159
14511SOL     OW45539   2.365   9.317   9.207
14511SOL    HW145540   2.325   9.265   9.135
14511SOL    HW245541   2.304   9.393   9.212
14512SOL     OW45542   2.388  10.235   8.484
14512SOL    HW145543   2.477  10.273   8.489
14512SOL    HW245544   2.375  10.196   8.572
14513SOL     OW45545   3.236  10.174   8.471
14513SOL    HW145546   3.149  10.148   8.440
14513SOL    HW245547   3.278  10.088   8.481
14514SOL     OW45548   3.091   9.829   7.714
14514SOL    HW145549   3.099   9.759   7.781
14514SOL    HW245550   3.027   9.888   7.758
14515SOL     OW45551   2.164   9.518   8.696
14515SOL    HW145552   2.114   9.549   8.774
14515SOL    HW245553   2.140   9.423   8.693
14516SOL     OW45554   1.909  10.618   8.720
14516SOL    HW145555   1.933  10.565   8.797
14516SOL    HW245556   1.906  10.709   8.756
14517SOL     OW45557   2.579   9.961   8.478
14517SOL    HW145558   2.657   9.916   8.440
14517SOL    HW245559   2.589  10.051   8.440
14518SOL     OW45560   3.626  10.257   9.294
14518SOL    HW145561   3.586  10.194   9.232
14518SOL    HW245562   3.557  10.266   9.361
14519SOL     OW45563   2.177   9.386   8.058
14519SOL    HW145564   2.145   9.475   8.081
14519SOL    HW245565   2.175   9.341   8.144
14520SOL     OW45566   3.467   9.693   7.801
14520SOL    HW145567   3.495   9.627   7.866
14520SOL    HW245568   3.456   9.774   7.856
14521SOL     OW45569   2.943  10.053   8.417
14521SOL    HW145570   2.906  10.087   8.500
14521SOL    HW245571   2.896   9.968   8.407
14522SOL     OW45572   2.851  10.861   9.155
14522SOL    HW145573   2.852  10.911   9.073
14522SOL    HW245574   2.891  10.776   9.129
14523SOL     OW45575   3.696  10.832   9.055
14523SOL    HW145576   3.725  10.840   8.962
14523SOL    HW245577   3.782  10.832   9.101
14524SOL     OW45578   2.211  10.205   9.249
14524SOL    HW145579   2.290  10.225   9.301
14524SOL    HW245580   2.244  10.134   9.189
14525SOL     OW45581   3.366   9.578   7.574
14525SOL    HW145582   3.295   9.521   7.607
14525SOL    HW245583   3.405   9.614   7.656
14526SOL     OW45584   3.139  10.148   7.476
14526SOL    HW145585   3.176  10.059   7.494
14526SOL    HW245586   3.174  10.162   7.386
14527SOL     OW45587   2.945  10.651   8.316
14527SOL    HW145588   2.924  10.586   8.244
14527SOL    HW245589   3.007  10.712   8.273
14528SOL     OW45590   2.138  10.121   8.445
14528SOL    HW145591   2.230  10.154   8.436
14528SOL    HW245592   2.153  10.028   8.467
14529SOL     OW45593   2.178   9.839   8.448
14529SOL    HW145594   2.157   9.744   8.436
14529SOL    HW245595   2.246   9.852   8.379
14530SOL     OW45596   3.022   9.670   9.148
14530SOL    HW145597   2.975   9.730   9.209
14530SOL    HW245598   3.110   9.712   9.142
14531SOL     OW45599   3.032   9.507   8.936
14531SOL    HW145600   3.027   9.572   9.008
14531SOL    HW245601   3.076   9.557   8.866
14532SOL     OW45602   1.864  10.624   7.617
14532SOL    HW145603   1.771  10.645   7.592
14532SOL    HW245604   1.855  10.537   7.659
14533SOL     OW45605   2.390  10.906   8.380
14533SOL    HW145606   2.478  10.944   8.393
14533SOL    HW245607   2.412  10.830   8.323
14534SOL     OW45608   2.847  10.106   8.686
14534SOL    HW145609   2.899  10.067   8.759
14534SOL    HW245610   2.761  10.066   8.699
14535SOL     OW45611   1.896   9.832   8.559
14535SOL    HW145612   1.976   9.831   8.505
14535SOL    HW245613   1.930   9.852   8.647
14536SOL     OW45614   2.078   9.827   9.165
14536SOL    HW145615   2.132   9.783   9.098
14536SOL    HW245616   2.030   9.894   9.113
14537SOL     OW45617   3.257  10.205   9.096
14537SOL    HW145618   3.281  10.300   9.100
14537SOL    HW245619   3.238  10.193   9.002
14538SOL     OW45620   2.668   9.870   7.836
14538SOL    HW145621   2.681   9.808   7.762
14538SOL    HW245622   2.596   9.926   7.805
14539SOL     OW45623   3.506   9.927   8.654
14539SOL    HW145624   3.485   9.859   8.719
14539SOL    HW245625   3.591   9.896   8.617
14540SOL     OW45626   2.082  10.827   9.181
14540SOL    HW145627   2.071  10.904   9.238
14540SOL    HW245628   2.101  10.756   9.244
14541SOL     OW45629   2.533   9.796   8.708
14541SOL    HW145630   2.499   9.715   8.668
14541SOL    HW245631   2.535   9.858   8.633
14542SOL     OW45632   2.297   9.778   7.642
14542SOL    HW145633   2.366   9.844   7.656
14542SOL    HW245634   2.219   9.835   7.629
14543SOL     OW45635   1.976  10.446   8.915
14543SOL    HW145636   2.000  10.393   8.993
14543SOL    HW245637   2.002  10.388   8.840
14544SOL     OW45638   3.186  10.350   8.689
14544SOL    HW145639   3.212  10.299   8.610
14544SOL    HW245640   3.113  10.404   8.653
14545SOL     OW45641   3.174  10.185   7.744
14545SOL    HW145642   3.099  10.149   7.794
14545SOL    HW245643   3.145  10.177   7.651
14546SOL     OW45644   3.627  11.054   8.520
14546SOL    HW145645   3.674  10.999   8.454
14546SOL    HW245646   3.590  10.982   8.575
14547SOL     OW45647   3.115  11.031   8.538
14547SOL    HW145648   3.204  11.049   8.504
14547SOL    HW245649   3.120  10.937   8.564
14548SOL     OW45650   1.959  10.574   8.464
14548SOL    HW145651   1.929  10.589   8.557
14548SOL    HW245652   1.883  10.527   8.427
14549SOL     OW45653   2.551  10.966   9.175
14549SOL    HW145654   2.491  11.042   9.182
14549SOL    HW245655   2.629  11.005   9.133
14550SOL     OW45656   3.544   9.449   7.945
14550SOL    HW145657   3.618   9.433   7.885
14550SOL    HW245658   3.542   9.366   7.998
14551SOL     OW45659   3.252  10.876   7.935
14551SOL    HW145660   3.321  10.892   7.867
14551SOL    HW245661   3.207  10.961   7.936
14552SOL     OW45662   2.019  11.098   9.280
14552SOL    HW145663   1.962  11.031   9.323
14552SOL    HW245664   2.060   0.036   9.359
14553SOL     OW45665   3.135  10.184   8.079
14553SOL    HW145666   3.221  10.149   8.107
14553SOL    HW245667   3.149  10.279   8.071
14554SOL     OW45668   2.653  10.579   8.866
14554SOL    HW145669   2.628  10.629   8.947
14554SOL    HW245670   2.569  10.582   8.817
14555SOL     OW45671   2.520  10.926   7.591
14555SOL    HW145672   2.551  10.905   7.502
14555SOL    HW245673   2.462  10.851   7.612
14556SOL     OW45674   3.704   9.474   8.419
14556SOL    HW145675   3.727   9.385   8.386
14556SOL    HW245676   3.616   9.491   8.378
14557SOL     OW45677   2.107   9.634   8.157
14557SOL    HW145678   2.022   9.677   8.136
14557SOL    HW245679   2.108   9.636   8.254
14558SOL     OW45680   3.062  10.934   7.480
14558SOL    HW145681   3.054  10.842   7.510
14558SOL    HW245682   2.996  10.939   7.409
14559SOL     OW45683   2.686  10.320   8.804
14559SOL    HW145684   2.734  10.308   8.721
14559SOL    HW245685   2.681  10.417   8.812
14560SOL     OW45686   2.765  10.217   7.707
14560SOL    HW145687   2.843  10.261   7.667
14560SOL    HW245688   2.807  10.153   7.766
14561SOL     OW45689   3.376  10.958   7.494
14561SOL    HW145690   3.283  10.935   7.481
14561SOL    HW245691   3.407  10.965   7.401
14562SOL     OW45692   2.214  10.587   8.945
14562SOL    HW145693   2.192  10.666   8.893
14562SOL    HW245694   2.132  10.535   8.938
14563SOL     OW45695   3.465  10.587   8.728
14563SOL    HW145696   3.516  10.568   8.809
14563SOL    HW245697   3.403  10.655   8.761
14564SOL     OW45698   2.897   9.538   8.432
14564SOL    HW145699   2.884   9.489   8.348
14564SOL    HW245700   2.896   9.464   8.497
14565SOL     OW45701   2.463  10.823   7.956
14565SOL    HW145702   2.489  10.778   7.874
14565SOL    HW245703   2.419  10.902   7.923
14566SOL     OW45704   3.574   9.684   8.826
14566SOL    HW145705   3.643   9.753   8.822
14566SOL    HW245706   3.614   9.614   8.770
14567SOL     OW45707   2.113  10.652   7.739
14567SOL    HW145708   2.018  10.658   7.718
14567SOL    HW245709   2.116  10.698   7.825
14568SOL     OW45710   1.989  10.321   9.152
14568SOL    HW145711   1.914  10.308   9.213
14568SOL    HW245712   2.065  10.285   9.202
14569SOL     OW45713   2.527   9.489   8.942
14569SOL    HW145714   2.615   9.457   8.913
14569SOL    HW245715   2.550   9.532   9.027
14570SOL     OW45716   1.957   9.640   7.467
14570SOL    HW145717   1.863   9.646   7.450
14570SOL    HW245718   1.990   9.720   7.421
14571SOL     OW45719   3.309  10.157   8.827
14571SOL    HW145720   3.257  10.221   8.774
14571SOL    HW245721   3.397  10.197   8.824
14572SOL     OW45722   1.903   9.470   7.740
14572SOL    HW145723   1.898   9.558   7.700
14572SOL    HW245724   1.987   9.438   7.704
14573SOL     OW45725   3.051  10.639   7.566
14573SOL    HW145726   2.975  10.580   7.578
14573SOL    HW245727   3.081  10.647   7.659
14574SOL     OW45728   2.490  10.124   8.876
14574SOL    HW145729   2.543  10.204   8.862
14574SOL    HW245730   2.560  10.056   8.882
14575SOL     OW45731   3.367  11.070   8.412
14575SOL    HW145732   3.376   0.018   8.330
14575SOL    HW245733   3.459  11.059   8.440
14576SOL     OW45734   2.588   9.852   9.131
14576SOL    HW145735   2.625   9.911   9.199
14576SOL    HW245736   2.603   9.763   9.166
14577SOL     OW45737   3.335  10.465   9.078
14577SOL    HW145738   3.319  10.485   9.172
14577SOL    HW245739   3.431  10.481   9.072
14578SOL     OW45740   3.585  10.189   8.664
14578SOL    HW145741   3.545  10.102   8.646
14578SOL    HW245742   3.539  10.248   8.601
14579SOL     OW45743   3.070   9.634   7.923
14579SOL    HW145744   3.136   9.563   7.912
14579SOL    HW245745   3.111   9.688   7.994
14580SOL     OW45746   2.463  10.040   8.108
14580SOL    HW145747   2.504  10.128   8.108
14580SOL    HW245748   2.383  10.055   8.055
14581SOL     OW45749   3.632   9.681   9.086
14581SOL    HW145750   3.601   9.691   8.994
14581SOL    HW245751   3.554   9.641   9.128
14582SOL     OW45752   3.600  10.232   8.938
14582SOL    HW145753   3.612  10.328   8.945
14582SOL    HW245754   3.616  10.215   8.844
14583SOL     OW45755   2.682  10.678   7.481
14583SOL    HW145756   2.683  10.684   7.579
14583SOL    HW245757   2.740  10.748   7.451
14584SOL     OW45758   2.681  10.198   8.370
14584SOL    HW145759   2.761  10.197   8.316
14584SOL    HW245760   2.674  10.292   8.391
14585SOL     OW45761   2.961  10.330   7.557
14585SOL    HW145762   2.923  10.373   7.478
14585SOL    HW245763   3.019  10.263   7.516
14586SOL     OW45764   3.704  10.903   8.316
14586SOL    HW145765   3.632  10.879   8.256
14586SOL    HW245766   3.727  10.818   8.355
14587SOL     OW45767   2.114  10.606   9.330
14587SOL    HW145768   2.028  10.576   9.296
14587SOL    HW245769   2.102  10.596   9.426
14588SOL     OW45770   1.948  10.565   8.099
14588SOL    HW145771   1.960  10.526   8.187
14588SOL    HW245772   2.005  10.509   8.044
14589SOL     OW45773   2.540  10.714   9.067
14589SOL    HW145774   2.474  10.659   9.112
14589SOL    HW245775   2.524  10.801   9.106
14590SOL     OW45776   3.682   9.476   8.681
14590SOL    HW145777   3.690   9.380   8.690
14590SOL    HW245778   3.689   9.485   8.584
14591SOL     OW45779   2.287   9.751   7.979
14591SOL    HW145780   2.326   9.677   7.931
14591SOL    HW245781   2.246   9.709   8.057
14592SOL     OW45782   3.559  10.799   8.585
14592SOL    HW145783   3.489  10.786   8.519
14592SOL    HW245784   3.549  10.717   8.637
14593SOL     OW45785   2.190   9.843   8.736
14593SOL    HW145786   2.265   9.807   8.785
14593SOL    HW245787   2.208   9.817   8.644
14594SOL     OW45788   2.666  10.912   8.148
14594SOL    HW145789   2.672  10.977   8.075
14594SOL    HW245790   2.584  10.865   8.129
14595SOL     OW45791   3.289   9.551   8.548
14595SOL    HW145792   3.319   9.472   8.593
14595SOL    HW245793   3.239   9.599   8.617
14596SOL     OW45794   2.879   9.315   8.602
14596SOL    HW145795   2.823   9.243   8.572
14596SOL    HW245796   2.968   9.273   8.597
14597SOL     OW45797   2.666  10.638   7.760
14597SOL    HW145798   2.614  10.555   7.759
14597SOL    HW245799   2.734  10.615   7.825
14598SOL     OW45800   2.468  10.867   8.730
14598SOL    HW145801   2.478  10.957   8.762
14598SOL    HW245802   2.558  10.849   8.696
14599SOL     OW45803   3.175   9.348   7.613
14599SOL    HW145804   3.190   9.277   7.550
14599SOL    HW245805   3.087   9.322   7.649
14600SOL     OW45806   3.173   9.789   8.121
14600SOL    HW145807   3.103   9.857   8.119
14600SOL    HW245808   3.151   9.739   8.202
14601SOL     OW45809   3.460   9.518   8.309
14601SOL    HW145810   3.381   9.529   8.365
14601SOL    HW245811   3.466   9.603   8.263
14602SOL     OW45812   1.917  10.372   7.751
14602SOL    HW145813   2.008  10.348   7.728
14602SOL    HW245814   1.881  10.285   7.774
14603SOL     OW45815   2.099   9.946   9.430
14603SOL    HW145816   2.012   9.923   9.464
14603SOL    HW245817   2.096   9.919   9.336
14604SOL     OW45818   2.076   9.616  10.285
14604SOL    HW145819   2.106   9.584  10.373
14604SOL    HW245820   2.000   9.555  10.269
14605SOL     OW45821   1.857   9.702   9.914
14605SOL    HW145822   1.780   9.719   9.971
14605SOL    HW245823   1.828   9.622   9.868
14606SOL     OW45824   2.426  10.588  10.463
14606SOL    HW145825   2.333  10.584  10.437
14606SOL    HW245826   2.429  10.675  10.507
14607SOL     OW45827   3.422  10.843  10.023
14607SOL    HW145828   3.368  10.821  10.101
14607SOL    HW245829   3.358  10.840   9.949
14608SOL     OW45830   2.985   9.994  10.016
14608SOL    HW145831   3.030  10.078   9.995
14608SOL    HW245832   2.938  10.017  10.097
14609SOL     OW45833   3.640   9.917   9.550
14609SOL    HW145834   3.618   9.905   9.455
14609SOL    HW245835   3.594   9.843   9.591
14610SOL     OW45836   2.608  10.455  10.316
14610SOL    HW145837   2.539  10.493  10.374
14610SOL    HW245838   2.647  10.537  10.280
14611SOL     OW45839   2.683  10.115  11.094
14611SOL    HW145840   2.703  10.164   0.073
14611SOL    HW245841   2.748  10.150  11.031
14612SOL     OW45842   2.560  10.338   9.971
14612SOL    HW145843   2.621  10.323  10.045
14612SOL    HW245844   2.483  10.378  10.015
14613SOL     OW45845   2.183  10.747  10.399
14613SOL    HW145846   2.106  10.718  10.348
14613SOL    HW245847   2.236  10.798  10.335
14614SOL     OW45848   3.333  10.801  10.671
14614SOL    HW145849   3.373  10.881  10.706
14614SOL    HW245850   3.287  10.766  10.749
14615SOL     OW45851   2.319   9.701  10.775
14615SOL    HW145852   2.391   9.637  10.789
14615SOL    HW245853   2.241   9.654  10.806
14616SOL     OW45854   3.474   9.749  10.042
14616SOL    HW145855   3.408   9.793   9.987
14616SOL    HW245856   3.477   9.807  10.119
14617SOL     OW45857   2.124  10.757   9.842
14617SOL    HW145858   2.126  10.851   9.867
14617SOL    HW245859   2.058  10.719   9.902
14618SOL     OW45860   2.111  10.407  10.188
14618SOL    HW145861   2.130  10.332  10.246
14618SOL    HW245862   2.065  10.469  10.248
14619SOL     OW45863   2.425  10.305   9.420
14619SOL    HW145864   2.481  10.342   9.350
14619SOL    HW245865   2.466  10.343   9.500
14620SOL     OW45866   3.456   9.425  10.785
14620SOL    HW145867   3.455   9.514  10.748
14620SOL    HW245868   3.449   9.440  10.880
14621SOL     OW45869   1.976   9.959   9.869
14621SOL    HW145870   1.947   9.868   9.886
14621SOL    HW245871   1.975  10.000   9.958
14622SOL     OW45872   1.923  10.903   9.438
14622SOL    HW145873   1.905  10.808   9.450
14622SOL    HW245874   1.856  10.944   9.494
14623SOL     OW45875   3.526  10.224   9.933
14623SOL    HW145876   3.605  10.179   9.898
14623SOL    HW245877   3.506  10.285   9.861
14624SOL     OW45878   3.516  10.435   9.758
14624SOL    HW145879   3.608  10.425   9.728
14624SOL    HW245880   3.527  10.498   9.833
14625SOL     OW45881   1.992  10.048  10.904
14625SOL    HW145882   2.081  10.062  10.938
14625SOL    HW245883   1.955  10.137  10.911
14626SOL     OW45884   2.455  10.705  10.069
14626SOL    HW145885   2.418  10.614  10.073
14626SOL    HW245886   2.452  10.720   9.973
14627SOL     OW45887   3.173  10.573  10.753
14627SOL    HW145888   3.196  10.506  10.686
14627SOL    HW245889   3.213  10.535  10.833
14628SOL     OW45890   2.695   9.306   9.818
14628SOL    HW145891   2.729   9.396   9.807
14628SOL    HW245892   2.600   9.323   9.830
14629SOL     OW45893   2.064  10.283  10.614
14629SOL    HW145894   2.149  10.239  10.593
14629SOL    HW245895   2.001  10.228  10.565
14630SOL     OW45896   3.405  10.287   9.508
14630SOL    HW145897   3.328  10.239   9.545
14630SOL    HW245898   3.444  10.327   9.587
14631SOL     OW45899   3.064  11.093  10.908
14631SOL    HW145900   3.054   0.056  10.837
14631SOL    HW245901   3.088  11.012  10.861
14632SOL     OW45902   2.212   9.555   0.018
14632SOL    HW145903   2.270   9.616   0.064
14632SOL    HW245904   2.129   9.607   0.012
14633SOL     OW45905   3.346  10.726  10.282
14633SOL    HW145906   3.271  10.736  10.343
14633SOL    HW245907   3.325  10.640  10.239
14634SOL     OW45908   2.451  10.019   9.573
14634SOL    HW145909   2.451  10.107   9.533
14634SOL    HW245910   2.382  10.028   9.642
14635SOL     OW45911   3.141   9.663  10.243
14635SOL    HW145912   3.052   9.623  10.249
14635SOL    HW245913   3.191   9.615  10.312
14636SOL     OW45914   3.438  10.946   9.626
14636SOL    HW145915   3.487  11.026   9.646
14636SOL    HW245916   3.427  10.952   9.529
14637SOL     OW45917   2.660   9.932  10.787
14637SOL    HW145918   2.648   9.894  10.877
14637SOL    HW245919   2.626   9.861  10.730
14638SOL     OW45920   2.850  10.213  10.875
14638SOL    HW145921   2.879  10.126  10.842
14638SOL    HW245922   2.783  10.240  10.810
14639SOL     OW45923   2.838   9.683  10.560
14639SOL    HW145924   2.755   9.718  10.596
14639SOL    HW245925   2.808   9.636  10.481
14640SOL     OW45926   2.894   9.999   9.719
14640SOL    HW145927   2.910  10.015   9.814
14640SOL    HW245928   2.809   9.951   9.721
14641SOL     OW45929   1.961  10.117  10.103
14641SOL    HW145930   2.034  10.111  10.168
14641SOL    HW245931   1.935  10.209  10.112
14642SOL     OW45932   1.985   0.031  10.895
14642SOL    HW145933   1.958  11.092  10.979
14642SOL    HW245934   1.901   0.039  10.848
14643SOL     OW45935   2.736   9.676   9.524
14643SOL    HW145936   2.769   9.728   9.449
14643SOL    HW245937   2.773   9.590   9.504
14644SOL     OW45938   3.222  10.460   9.873
14644SOL    HW145939   3.304  10.459   9.822
14644SOL    HW245940   3.168  10.524   9.823
14645SOL     OW45941   2.412   9.480  10.196
14645SOL    HW145942   2.419   9.500  10.291
14645SOL    HW245943   2.411   9.568  10.156
14646SOL     OW45944   2.853  10.766   9.779
14646SOL    HW145945   2.770  10.788   9.734
14646SOL    HW245946   2.835  10.798   9.869
14647SOL     OW45947   2.204  -0.001  10.195
14647SOL    HW145948   2.259  11.024  10.219
14647SOL    HW245949   2.270   0.071  10.187
14648SOL     OW45950   3.678  10.371  10.165
14648SOL    HW145951   3.613  10.356  10.095
14648SOL    HW245952   3.622  10.363  10.244
14649SOL     OW45953   3.074  10.849  10.790
14649SOL    HW145954   3.105  10.766  10.830
14649SOL    HW245955   3.025  10.815  10.714
14650SOL     OW45956   2.169  10.260   9.554
14650SOL    HW145957   2.254  10.277   9.511
14650SOL    HW245958   2.138  10.182   9.505
14651SOL     OW45959   3.345  10.051  10.021
14651SOL    HW145960   3.351  10.026  10.115
14651SOL    HW245961   3.420  10.112  10.010
14652SOL     OW45962   2.314  10.575  11.040
14652SOL    HW145963   2.280  10.589  10.949
14652SOL    HW245964   2.279  10.487  11.060
14653SOL     OW45965   2.949  11.079   9.565
14653SOL    HW145966   2.887  11.023   9.614
14653SOL    HW245967   2.958  11.034   9.479
14654SOL     OW45968   2.036   9.596  10.774
14654SOL    HW145969   1.973   9.662  10.805
14654SOL    HW245970   2.018   9.520  10.832
14655SOL     OW45971   3.481  10.695   9.405
14655SOL    HW145972   3.433  10.778   9.393
14655SOL    HW245973   3.418  10.628   9.374
14656SOL     OW45974   3.245   9.443   9.755
14656SOL    HW145975   3.237   9.396   9.671
14656SOL    HW245976   3.341   9.450   9.765
14657SOL     OW45977   2.251  10.017   9.766
14657SOL    HW145978   2.274   9.923   9.781
14657SOL    HW245979   2.156  10.013   9.784
14658SOL     OW45980   2.488   9.447   9.398
14658SOL    HW145981   2.564   9.393   9.423
14658SOL    HW245982   2.441   9.389   9.334
14659SOL     OW45983   2.625   9.548  11.022
14659SOL    HW145984   2.710   9.545  11.067
14659SOL    HW245985   2.579   9.610  11.080
14660SOL     OW45986   2.748  10.840  10.512
14660SOL    HW145987   2.736  10.801  10.424
14660SOL    HW245988   2.813  10.780  10.554
14661SOL     OW45989   3.210   9.901  10.739
14661SOL    HW145990   3.274   9.877  10.807
14661SOL    HW245991   3.244   9.988  10.711
14662SOL     OW45992   2.708  10.716  10.271
14662SOL    HW145993   2.796  10.704  10.230
14662SOL    HW245994   2.651  10.718  10.192
14663SOL     OW45995   2.801   9.833  10.218
14663SOL    HW145996   2.772   9.818  10.125
14663SOL    HW245997   2.831   9.744  10.241
14664SOL     OW45998   2.421   9.360   9.814
14664SOL    HW145999   2.347   9.370   9.877
14664SOL    HW246000   2.407   9.439   9.756
14665SOL     OW46001   3.303  10.494   9.346
14665SOL    HW146002   3.334  10.421   9.403
14665SOL    HW246003   3.210  10.503   9.371
14666SOL     OW46004   2.144   9.355   9.505
14666SOL    HW146005   2.199   9.431   9.482
14666SOL    HW246006   2.211   9.295   9.543
14667SOL     OW46007   2.794   9.559   9.799
14667SOL    HW146008   2.774   9.614   9.722
14667SOL    HW246009   2.890   9.576   9.808
14668SOL     OW46010   2.959   9.992  10.748
14668SOL    HW146011   2.907   9.920  10.786
14668SOL    HW246012   3.051   9.962  10.763
14669SOL     OW46013   3.101  10.866  10.113
14669SOL    HW146014   3.068  10.939  10.060
14669SOL    HW246015   3.138  10.911  10.190
14670SOL     OW46016   2.329  10.471  10.045
14670SOL    HW146017   2.254  10.452  10.105
14670SOL    HW246018   2.292  10.443   9.959
14671SOL     OW46019   2.921   9.847   9.330
14671SOL    HW146020   2.875   9.930   9.310
14671SOL    HW246021   2.987   9.872   9.396
14672SOL     OW46022   1.940   9.879  10.703
14672SOL    HW146023   2.033   9.876  10.676
14672SOL    HW246024   1.943   9.948  10.773
14673SOL     OW46025   2.433   9.524  10.468
14673SOL    HW146026   2.473   9.461  10.529
14673SOL    HW246027   2.344   9.533  10.506
14674SOL     OW46028   2.734   9.773   9.972
14674SOL    HW146029   2.678   9.817   9.907
14674SOL    HW246030   2.759   9.691   9.928
14675SOL     OW46031   2.916   9.388  10.077
14675SOL    HW146032   2.875   9.378   9.991
14675SOL    HW246033   2.882   9.310  10.125
14676SOL     OW46034   3.289  10.484  10.193
14676SOL    HW146035   3.216  10.423  10.211
14676SOL    HW246036   3.297  10.478  10.097
14677SOL     OW46037   3.344   9.908  10.282
14677SOL    HW146038   3.286   9.832  10.294
14677SOL    HW246039   3.403   9.905  10.360
14678SOL     OW46040   3.693  10.132   9.712
14678SOL    HW146041   3.752  10.077   9.768
14678SOL    HW246042   3.686  10.076   9.632
14679SOL     OW46043   2.347  10.743   9.479
14679SOL    HW146044   2.273  10.705   9.532
14679SOL    HW246045   2.329  10.704   9.393
14680SOL     OW46046   3.543  10.602   9.983
14680SOL    HW146047   3.638  10.619   9.995
14680SOL    HW246048   3.502  10.689   9.997
14681SOL     OW46049   3.269   9.917   9.374
14681SOL    HW146050   3.223   9.881   9.453
14681SOL    HW246051   3.360   9.889   9.390
14682SOL     OW46052   2.376   9.542   9.622
14682SOL    HW146053   2.424   9.513   9.542
14682SOL    HW246054   2.340   9.628   9.590
14683SOL     OW46055   3.617  10.535  10.879
14683SOL    HW146056   3.713  10.528  10.882
14683SOL    HW246057   3.600  10.615  10.930
14684SOL     OW46058   2.911  10.670  10.661
14684SOL    HW146059   2.826  10.639  10.700
14684SOL    HW246060   2.976  10.609  10.700
14685SOL     OW46061   2.966  10.515  10.426
14685SOL    HW146062   2.899  10.552  10.483
14685SOL    HW246063   2.948  10.558  10.340
14686SOL     OW46064   3.489  10.403  10.384
14686SOL    HW146065   3.492  10.465  10.460
14686SOL    HW246066   3.420  10.443  10.330
14687SOL     OW46067   2.775   9.413  10.686
14687SOL    HW146068   2.813   9.385  10.601
14687SOL    HW246069   2.851   9.454  10.730
14688SOL     OW46070   2.558  10.388   9.640
14688SOL    HW146071   2.548  10.363   9.733
14688SOL    HW246072   2.633  10.330   9.614
14689SOL     OW46073   2.294  10.126  10.582
14689SOL    HW146074   2.366  10.131  10.649
14689SOL    HW246075   2.260  10.036  10.596
14690SOL     OW46076   3.123   9.684  10.588
14690SOL    HW146077   3.145   9.765  10.636
14690SOL    HW246078   3.035   9.703  10.553
14691SOL     OW46079   1.925  10.882  10.664
14691SOL    HW146080   1.894  10.941  10.594
14691SOL    HW246081   2.022  10.891  10.661
14692SOL     OW46082   2.227  10.384   9.809
14692SOL    HW146083   2.252  10.453   9.747
14692SOL    HW246084   2.211  10.308   9.750
14693SOL     OW46085   2.409   9.841  10.153
14693SOL    HW146086   2.433   9.906  10.084
14693SOL    HW246087   2.475   9.858  10.221
14694SOL     OW46088   3.103  10.663   9.694
14694SOL    HW146089   3.158  10.731   9.739
14694SOL    HW246090   3.013  10.691   9.719
14695SOL     OW46091   3.158  10.759  10.471
14695SOL    HW146092   3.222  10.767  10.545
14695SOL    HW246093   3.100  10.686  10.497
14696SOL     OW46094   3.430   9.922   9.777
14696SOL    HW146095   3.389   9.982   9.841
14696SOL    HW246096   3.481   9.982   9.720
14697SOL     OW46097   2.197  10.832  10.649
14697SOL    HW146098   2.189  10.798  10.557
14697SOL    HW246099   2.293  10.845  10.655
14698SOL     OW46100   2.316  10.023  10.923
14698SOL    HW146101   2.379  10.070  10.866
14698SOL    HW246102   2.332   9.930  10.900
14699SOL     OW46103   3.479  10.058  10.993
14699SOL    HW146104   3.427  10.120  11.045
14699SOL    HW246105   3.532  10.118  10.936
14700SOL     OW46106   2.409  10.208  10.343
14700SOL    HW146107   2.468  10.286  10.348
14700SOL    HW246108   2.380  10.195  10.435
14701SOL     OW46109   3.195  10.180  10.341
14701SOL    HW146110   3.122  10.142  10.291
14701SOL    HW246111   3.255  10.105  10.349
14702SOL     OW46112   3.086   9.833   9.574
14702SOL    HW146113   3.091   9.760   9.638
14702SOL    HW246114   3.024   9.893   9.619
14703SOL     OW46115   2.155   9.522  10.536
14703SOL    HW146116   2.113   9.555  10.618
14703SOL    HW246117   2.138   9.426  10.543
14704SOL     OW46118   1.887  10.619  10.599
14704SOL    HW146119   1.931  10.571  10.671
14704SOL    HW246120   1.893  10.712  10.629
14705SOL     OW46121   2.574   9.957  10.345
14705SOL    HW146122   2.656   9.949  10.294
14705SOL    HW246123   2.537  10.042  10.316
14706SOL     OW46124   2.166   9.381   9.921
14706SOL    HW146125   2.142   9.473   9.944
14706SOL    HW246126   2.168   9.339  10.009
14707SOL     OW46127   3.458   9.684   9.662
14707SOL    HW146128   3.491   9.617   9.724
14707SOL    HW246129   3.444   9.763   9.720
14708SOL     OW46130   2.908  10.069  10.273
14708SOL    HW146131   2.894  10.086  10.368
14708SOL    HW246132   2.883   9.975  10.264
14709SOL     OW46133   2.832  10.873  10.974
14709SOL    HW146134   2.859  10.920  10.894
14709SOL    HW246135   2.828  10.780  10.946
14710SOL     OW46136   3.693  10.844  10.899
14710SOL    HW146137   3.734  10.848  10.811
14710SOL    HW246138   3.769  10.849  10.958
14711SOL     OW46139   2.248  10.235  11.065
14711SOL    HW146140   2.317  10.244   0.030
14711SOL    HW246141   2.276  10.154  11.018
14712SOL     OW46142   3.358   9.563   9.436
14712SOL    HW146143   3.284   9.510   9.470
14712SOL    HW246144   3.399   9.600   9.517
14713SOL     OW46145   3.144  10.157   9.334
14713SOL    HW146146   3.187  10.071   9.354
14713SOL    HW246147   3.176  10.170   9.243
14714SOL     OW46148   2.943  10.635  10.170
14714SOL    HW146149   2.929  10.568  10.099
14714SOL    HW246150   3.005  10.697  10.129
14715SOL     OW46151   2.149  10.123  10.298
14715SOL    HW146152   2.243  10.147  10.306
14715SOL    HW246153   2.152  10.028  10.318
14716SOL     OW46154   2.194   9.853  10.307
14716SOL    HW146155   2.152   9.767  10.287
14716SOL    HW246156   2.269   9.853  10.244
14717SOL     OW46157   3.014   9.514  10.773
14717SOL    HW146158   3.044   9.570  10.846
14717SOL    HW246159   3.048   9.562  10.695
14718SOL     OW46160   1.860  10.639   9.490
14718SOL    HW146161   1.770  10.664   9.458
14718SOL    HW246162   1.843  10.551   9.527
14719SOL     OW46163   2.379  10.898  10.246
14719SOL    HW146164   2.464  10.943  10.254
14719SOL    HW246165   2.401  10.826  10.184
14720SOL     OW46166   2.841  10.117  10.547
14720SOL    HW146167   2.906  10.077  10.609
14720SOL    HW246168   2.762  10.065  10.568
14721SOL     OW46169   1.891   9.825  10.433
14721SOL    HW146170   1.970   9.817  10.379
14721SOL    HW246171   1.928   9.824  10.523
14722SOL     OW46172   2.662   9.873   9.699
14722SOL    HW146173   2.679   9.806   9.631
14722SOL    HW246174   2.589   9.924   9.660
14723SOL     OW46175   3.518   9.929  10.508
14723SOL    HW146176   3.508   9.856  10.570
14723SOL    HW246177   3.600   9.903  10.461
14724SOL     OW46178   2.093  10.828  11.037
14724SOL    HW146179   2.047  10.887  11.100
14724SOL    HW246180   2.107  10.750  11.092
14725SOL     OW46181   2.573   9.780  10.575
14725SOL    HW146182   2.515   9.707  10.549
14725SOL    HW246183   2.560   9.844  10.502
14726SOL     OW46184   2.296   9.778   9.511
14726SOL    HW146185   2.365   9.845   9.519
14726SOL    HW246186   2.219   9.834   9.491
14727SOL     OW46187   2.008  10.468  10.792
14727SOL    HW146188   2.012  10.410  10.872
14727SOL    HW246189   2.034  10.403  10.722
14728SOL     OW46190   3.175  10.364  10.546
14728SOL    HW146191   3.197  10.300  10.475
14728SOL    HW246192   3.103  10.414  10.504
14729SOL     OW46193   3.171  10.182   9.605
14729SOL    HW146194   3.088  10.149   9.643
14729SOL    HW246195   3.153  10.183   9.509
14730SOL     OW46196   3.640  11.025  10.462
14730SOL    HW146197   3.687  11.034  10.378
14730SOL    HW246198   3.607  10.933  10.456
14731SOL     OW46199   3.112  11.029  10.454
14731SOL    HW146200   3.198  11.051  10.414
14731SOL    HW246201   3.120  10.932  10.463
14732SOL     OW46202   1.963  10.575  10.334
14732SOL    HW146203   1.930  10.589  10.425
14732SOL    HW246204   1.888  10.529  10.291
14733SOL     OW46205   3.541   9.450   9.800
14733SOL    HW146206   3.618   9.434   9.745
14733SOL    HW246207   3.538   9.368   9.853
14734SOL     OW46208   3.250  10.875   9.803
14734SOL    HW146209   3.321  10.881   9.735
14734SOL    HW246210   3.211  10.963   9.796
14735SOL     OW46211   3.125  10.216   9.979
14735SOL    HW146212   3.204  10.159   9.991
14735SOL    HW246213   3.162  10.295   9.937
14736SOL     OW46214   2.673  10.597  10.748
14736SOL    HW146215   2.633  10.638  10.828
14736SOL    HW246216   2.597  10.599  10.688
14737SOL     OW46217   2.527  10.932   9.446
14737SOL    HW146218   2.543  10.922   9.350
14737SOL    HW246219   2.463  10.859   9.464
14738SOL     OW46220   3.713   9.475  10.270
14738SOL    HW146221   3.731   9.383  10.245
14738SOL    HW246222   3.623   9.491  10.235
14739SOL     OW46223   2.112   9.631  10.003
14739SOL    HW146224   2.022   9.666   9.986
14739SOL    HW246225   2.119   9.637  10.100
14740SOL     OW46226   3.062  10.934   9.345
14740SOL    HW146227   3.059  10.842   9.374
14740SOL    HW246228   2.999  10.936   9.271
14741SOL     OW46229   2.671  10.329  10.683
14741SOL    HW146230   2.733  10.308  10.611
14741SOL    HW246231   2.698  10.418  10.712
14742SOL     OW46232   2.767  10.231   9.577
14742SOL    HW146233   2.845  10.267   9.532
14742SOL    HW246234   2.802  10.152   9.621
14743SOL     OW46235   3.381  10.962   9.360
14743SOL    HW146236   3.288  10.941   9.348
14743SOL    HW246237   3.412  10.967   9.267
14744SOL     OW46238   2.234  10.597  10.790
14744SOL    HW146239   2.213  10.678  10.741
14744SOL    HW246240   2.148  10.550  10.786
14745SOL     OW46241   3.480  10.584  10.591
14745SOL    HW146242   3.528  10.564  10.674
14745SOL    HW246243   3.423  10.658  10.619
14746SOL     OW46244   2.892  10.433   9.998
14746SOL    HW146245   2.836  10.375  10.053
14746SOL    HW246246   2.958  10.371   9.964
14747SOL     OW46247   2.885   9.547  10.295
14747SOL    HW146248   2.884   9.505  10.207
14747SOL    HW246249   2.887   9.468  10.352
14748SOL     OW46250   2.470  10.811   9.807
14748SOL    HW146251   2.488  10.769   9.721
14748SOL    HW246252   2.423  10.891   9.781
14749SOL     OW46253   3.562   9.697  10.698
14749SOL    HW146254   3.626   9.769  10.704
14749SOL    HW246255   3.607   9.637  10.635
14750SOL     OW46256   2.122  10.657   9.599
14750SOL    HW146257   2.027  10.668   9.584
14750SOL    HW246258   2.132  10.693   9.689
14751SOL     OW46259   1.999  10.318  11.010
14751SOL    HW146260   1.934  10.300  11.079
14751SOL    HW246261   2.083  10.286  11.048
14752SOL     OW46262   2.532   9.506  10.774
14752SOL    HW146263   2.619   9.485  10.734
14752SOL    HW246264   2.558   9.524  10.867
14753SOL     OW46265   1.961   9.658   9.346
14753SOL    HW146266   1.867   9.651   9.323
14753SOL    HW246267   1.991   9.727   9.284
14754SOL     OW46268   3.297  10.155  10.693
14754SOL    HW146269   3.241  10.228  10.663
14754SOL    HW246270   3.386  10.193  10.683
14755SOL     OW46271   1.904   9.471   9.599
14755SOL    HW146272   1.902   9.561   9.564
14755SOL    HW246273   1.991   9.441   9.567
14756SOL     OW46274   3.048  10.629   9.428
14756SOL    HW146275   2.968  10.576   9.442
14756SOL    HW246276   3.081  10.638   9.519
14757SOL     OW46277   2.494  10.139  10.751
14757SOL    HW146278   2.552  10.214  10.732
14757SOL    HW246279   2.558  10.067  10.768
14758SOL     OW46280   3.366  11.072  10.297
14758SOL    HW146281   3.403  11.072  10.208
14758SOL    HW246282   3.443  11.053  10.351
14759SOL     OW46283   2.595   9.857  11.040
14759SOL    HW146284   2.611   9.947  11.076
14759SOL    HW246285   2.622   9.802   0.014
14760SOL     OW46286   2.265  11.021  10.904
14760SOL    HW146287   2.189  11.077  10.883
14760SOL    HW246288   2.221  10.946  10.949
14761SOL     OW46289   3.541  10.207  10.577
14761SOL    HW146290   3.537  10.113  10.551
14761SOL    HW246291   3.515  10.254  10.495
14762SOL     OW46292   3.061   9.642   9.782
14762SOL    HW146293   3.125   9.568   9.776
14762SOL    HW246294   3.099   9.693   9.857
14763SOL     OW46295   2.457  10.040   9.975
14763SOL    HW146296   2.500  10.126   9.963
14763SOL    HW246297   2.379  10.047   9.918
14764SOL     OW46298   3.629   9.625  10.951
14764SOL    HW146299   3.594   9.648  10.863
14764SOL    HW246300   3.551   9.633  11.007
14765SOL     OW46301   3.606  10.257  10.830
14765SOL    HW146302   3.606  10.353  10.842
14765SOL    HW246303   3.597  10.246  10.733
14766SOL     OW46304   2.702  10.674   9.344
14766SOL    HW146305   2.677  10.698   9.435
14766SOL    HW246306   2.748  10.752   9.310
14767SOL     OW46307   2.756  10.267  10.166
14767SOL    HW146308   2.812  10.197  10.204
14767SOL    HW246309   2.722  10.314  10.244
14768SOL     OW46310   2.960  10.334   9.420
14768SOL    HW146311   2.922  10.376   9.340
14768SOL    HW246312   3.019  10.268   9.380
14769SOL     OW46313   3.679  10.934  10.188
14769SOL    HW146314   3.631  10.891  10.116
14769SOL    HW246315   3.690  10.860  10.250
14770SOL     OW46316   1.951  10.566   9.975
14770SOL    HW146317   1.983  10.524  10.056
14770SOL    HW246318   1.990  10.510   9.906
14771SOL     OW46319   2.520  10.714  10.925
14771SOL    HW146320   2.464  10.653  10.976
14771SOL    HW246321   2.463  10.790  10.913
14772SOL     OW46322   3.678   9.523  10.535
14772SOL    HW146323   3.698   9.431  10.555
14772SOL    HW246324   3.692   9.525  10.438
14773SOL     OW46325   2.289   9.760   9.822
14773SOL    HW146326   2.345   9.691   9.784
14773SOL    HW246327   2.239   9.713   9.891
14774SOL     OW46328   3.580  10.771  10.410
14774SOL    HW146329   3.496  10.751  10.364
14774SOL    HW246330   3.580  10.704  10.482
14775SOL     OW46331   2.199   9.862  10.595
14775SOL    HW146332   2.255   9.805  10.653
14775SOL    HW246333   2.214   9.824  10.507
14776SOL     OW46334   2.698  10.885   9.998
14776SOL    HW146335   2.691  10.961   9.936
14776SOL    HW246336   2.608  10.850   9.999
14777SOL     OW46337   3.290   9.546  10.433
14777SOL    HW146338   3.328   9.474  10.484
14777SOL    HW246339   3.234   9.593  10.498
14778SOL     OW46340   2.880   9.315  10.449
14778SOL    HW146341   2.827   9.238  10.424
14778SOL    HW246342   2.969   9.275  10.459
14779SOL     OW46343   2.654  10.647   9.615
14779SOL    HW146344   2.602  10.566   9.605
14779SOL    HW246345   2.726  10.616   9.672
14780SOL     OW46346   2.475  10.852  10.592
14780SOL    HW146347   2.477  10.943  10.624
14780SOL    HW246348   2.566  10.842  10.559
14781SOL     OW46349   3.178   9.340   9.489
14781SOL    HW146350   3.191   9.280   9.415
14781SOL    HW246351   3.089   9.312   9.520
14782SOL     OW46352   3.155   9.785   9.997
14782SOL    HW146353   3.094   9.862   9.998
14782SOL    HW246354   3.144   9.749  10.086
14783SOL     OW46355   3.463   9.514  10.184
14783SOL    HW146356   3.391   9.526  10.247
14783SOL    HW246357   3.457   9.592  10.127
14784SOL     OW46358   1.911  10.384   9.644
14784SOL    HW146359   1.999  10.368   9.607
14784SOL    HW246360   1.883  10.293   9.665
14785SOL     OW46361   3.974   0.628   0.158
14785SOL    HW146362   3.884   0.611   0.189
14785SOL    HW246363   3.964   0.632   0.063
14786SOL     OW46364   3.928   0.290   0.995
14786SOL    HW146365   3.961   0.275   1.085
14786SOL    HW246366   3.867   0.216   0.982
14787SOL     OW46367   3.734   0.371   0.638
14787SOL    HW146368   3.659   0.401   0.691
14787SOL    HW246369   3.692   0.308   0.578
14788SOL     OW46370   4.293   1.293   1.200
14788SOL    HW146371   4.206   1.293   1.157
14788SOL    HW246372   4.299   1.384   1.234
14789SOL     OW46373   5.268   1.519   0.708
14789SOL    HW146374   5.227   1.496   0.794
14789SOL    HW246375   5.192   1.520   0.646
14790SOL     OW46376   4.844   0.691   0.702
14790SOL    HW146377   4.883   0.779   0.682
14790SOL    HW246378   4.830   0.698   0.798
14791SOL     OW46379   5.509   0.608   0.211
14791SOL    HW146380   5.453   0.624   0.134
14791SOL    HW246381   5.465   0.534   0.255
14792SOL     OW46382   4.475   1.165   1.043
14792SOL    HW146383   4.406   1.208   1.097
14792SOL    HW246384   4.507   1.241   0.991
14793SOL     OW46385   4.605   0.761   1.798
14793SOL    HW146386   4.586   0.823   1.869
14793SOL    HW246387   4.633   0.821   1.725
14794SOL     OW46388   4.414   1.002   0.642
14794SOL    HW146389   4.480   0.992   0.713
14794SOL    HW246390   4.344   1.055   0.685
14795SOL     OW46391   4.421   1.156   1.805
14795SOL    HW146392   4.466   1.241   1.827
14795SOL    HW246393   4.331   1.186   1.780
14796SOL     OW46394   4.041   1.426   1.077
14796SOL    HW146395   3.968   1.379   1.032
14796SOL    HW246396   4.087   1.471   1.004
14797SOL     OW46397   5.198   1.505   1.367
14797SOL    HW146398   5.253   1.585   1.383
14797SOL    HW246399   5.131   1.512   1.436
14798SOL     OW46400   4.159   0.414   1.497
14798SOL    HW146401   4.237   0.357   1.490
14798SOL    HW246402   4.085   0.351   1.500
14799SOL     OW46403   5.322   0.454   0.728
14799SOL    HW146404   5.242   0.488   0.686
14799SOL    HW246405   5.349   0.529   0.781
14800SOL     OW46406   3.959   1.722   0.500
14800SOL    HW146407   4.003   1.804   0.533
14800SOL    HW246408   3.993   1.717   0.410
14801SOL     OW46409   4.853   1.352   1.666
14801SOL    HW146410   4.894   1.348   1.753
14801SOL    HW246411   4.807   1.266   1.665
14802SOL     OW46412   3.968   1.427   0.523
14802SOL    HW146413   3.963   1.522   0.542
14802SOL    HW246414   3.903   1.389   0.583
14803SOL     OW46415   3.991   1.093   0.904
14803SOL    HW146416   3.990   1.015   0.961
14803SOL    HW246417   3.934   1.155   0.954
14804SOL     OW46418   4.323   1.802   1.406
14804SOL    HW146419   4.253   1.773   1.466
14804SOL    HW246420   4.345   1.890   1.441
14805SOL     OW46421   4.309   0.981   0.147
14805SOL    HW146422   4.345   1.046   0.086
14805SOL    HW246423   4.352   1.008   0.231
14806SOL     OW46424   5.318   0.100   1.485
14806SOL    HW146425   5.341   0.151   1.406
14806SOL    HW246426   5.287   0.170   1.544
14807SOL     OW46427   3.837   0.675   0.569
14807SOL    HW146428   3.817   0.583   0.588
14807SOL    HW246429   3.826   0.720   0.655
14808SOL     OW46430   5.564   1.732   0.367
14808SOL    HW146431   5.639   1.713   0.427
14808SOL    HW246432   5.587   1.822   0.338
14809SOL     OW46433   3.790   1.592   0.125
14809SOL    HW146434   3.771   1.504   0.161
14809SOL    HW246435   3.763   1.649   0.199
14810SOL     OW46436   5.420   0.922   0.621
14810SOL    HW146437   5.508   0.898   0.588
14810SOL    HW246438   5.390   0.985   0.553
14811SOL     OW46439   5.363   1.121   0.441
14811SOL    HW146440   5.434   1.153   0.383
14811SOL    HW246441   5.369   1.185   0.515
14812SOL     OW46442   3.850   0.735   1.577
14812SOL    HW146443   3.940   0.771   1.576
14812SOL    HW246444   3.799   0.815   1.595
14813SOL     OW46445   4.304   1.394   0.737
14813SOL    HW146446   4.269   1.302   0.742
14813SOL    HW246447   4.297   1.412   0.642
14814SOL     OW46448   5.005   1.234   1.419
14814SOL    HW146449   5.038   1.166   1.357
14814SOL    HW246450   5.059   1.216   1.498
14815SOL     OW46451   4.562   0.001   0.539
14815SOL    HW146452   4.592   0.090   0.510
14815SOL    HW246453   4.467   0.004   0.517
14816SOL     OW46454   3.888   0.975   1.255
14816SOL    HW146455   3.976   0.937   1.241
14816SOL    HW246456   3.829   0.912   1.213
14817SOL     OW46457   5.261   0.986   0.200
14817SOL    HW146458   5.186   0.934   0.230
14817SOL    HW246459   5.301   1.015   0.283
14818SOL     OW46460   4.896   1.803   1.615
14818SOL    HW146461   4.908   1.870   1.546
14818SOL    HW246462   4.917   1.722   1.566
14819SOL     OW46463   4.044   0.250   1.797
14819SOL    HW146464   4.081   0.331   1.835
14819SOL    HW246465   3.950   0.257   1.820
14820SOL     OW46466   5.190   1.433   0.967
14820SOL    HW146467   5.126   1.448   1.038
14820SOL    HW246468   5.166   1.342   0.937
14821SOL     OW46469   5.390   1.744   0.612
14821SOL    HW146470   5.395   1.711   0.521
14821SOL    HW246471   5.354   1.667   0.658
14822SOL     OW46472   4.314   0.708   0.275
14822SOL    HW146473   4.319   0.791   0.227
14822SOL    HW246474   4.249   0.726   0.345
14823SOL     OW46475   4.987   0.388   0.952
14823SOL    HW146476   4.906   0.332   0.957
14823SOL    HW246477   5.054   0.330   0.992
14824SOL     OW46478   5.296   1.656   0.320
14824SOL    HW146479   5.391   1.675   0.321
14824SOL    HW246480   5.281   1.633   0.227
14825SOL     OW46481   4.543   0.608   1.448
14825SOL    HW146482   4.512   0.587   1.539
14825SOL    HW246483   4.491   0.544   1.396
14826SOL     OW46484   5.128   0.493   1.673
14826SOL    HW146485   5.132   0.542   1.757
14826SOL    HW246486   5.188   0.418   1.688
14827SOL     OW46487   4.693   0.913   1.592
14827SOL    HW146488   4.750   0.841   1.556
14827SOL    HW246489   4.641   0.934   1.511
14828SOL     OW46490   4.723   0.380   1.241
14828SOL    HW146491   4.641   0.401   1.287
14828SOL    HW246492   4.693   0.346   1.157
14829SOL     OW46493   4.775   0.673   0.418
14829SOL    HW146494   4.795   0.683   0.513
14829SOL    HW246495   4.686   0.631   0.422
14830SOL     OW46496   3.826   0.840   0.790
14830SOL    HW146497   3.899   0.836   0.854
14830SOL    HW246498   3.776   0.917   0.822
14831SOL     OW46499   3.830   1.853   1.567
14831SOL    HW146500   3.840   1.830   1.662
14831SOL    HW246501   3.736   1.838   1.553
14832SOL     OW46502   4.627   0.358   0.211
14832SOL    HW146503   4.662   0.408   0.135
14832SOL    HW246504   4.603   0.274   0.171
14833SOL     OW46505   5.432   0.564   1.839
14833SOL    HW146506   5.402   0.646   1.796
14833SOL    HW246507   5.457   0.512   1.760
14834SOL     OW46508   5.080   1.155   0.577
14834SOL    HW146509   5.159   1.137   0.524
14834SOL    HW246510   5.035   1.221   0.522
14835SOL     OW46511   4.262   0.200   0.900
14835SOL    HW146512   4.286   0.217   0.993
14835SOL    HW246513   4.264   0.287   0.858
14836SOL     OW46514   4.705   1.428   0.485
14836SOL    HW146515   4.676   1.501   0.427
14836SOL    HW246516   4.731   1.475   0.565
14837SOL     OW46517   4.066   1.812   0.859
14837SOL    HW146518   4.121   1.732   0.865
14837SOL    HW246519   4.130   1.882   0.879
14838SOL     OW46520   5.538   1.051   0.884
14838SOL    HW146521   5.480   1.036   0.808
14838SOL    HW246522   5.479   1.037   0.960
14839SOL     OW46523   4.942   1.563   1.487
14839SOL    HW146524   4.924   1.498   1.557
14839SOL    HW246525   4.898   1.521   1.412
14840SOL     OW46526   4.046   0.964   0.272
14840SOL    HW146527   4.131   0.963   0.227
14840SOL    HW246528   4.011   0.874   0.256
14841SOL     OW46529   5.205   0.742   0.711
14841SOL    HW146530   5.191   0.710   0.801
14841SOL    HW246531   5.274   0.810   0.722
14842SOL     OW46532   4.185   1.273   1.719
14842SOL    HW146533   4.146   1.275   1.629
14842SOL    HW246534   4.105   1.279   1.773
14843SOL     OW46535   4.810   1.765   0.210
14843SOL    HW146536   4.757   1.713   0.274
14843SOL    HW246537   4.841   1.698   0.147
14844SOL     OW46538   3.908   0.297   1.504
14844SOL    HW146539   3.828   0.347   1.526
14844SOL    HW246540   3.890   0.212   1.549
14845SOL     OW46541   5.348   1.345   0.088
14845SOL    HW146542   5.305   1.428   0.064
14845SOL    HW246543   5.293   1.277   0.043
14846SOL     OW46544   4.180   1.742   0.305
14846SOL    HW146545   4.222   1.786   0.381
14846SOL    HW246546   4.257   1.721   0.249
14847SOL     OW46547   5.123   0.092   0.446
14847SOL    HW146548   5.117   0.073   0.351
14847SOL    HW246549   5.218   0.108   0.459
14848SOL     OW46550   3.970   1.788   1.227
14848SOL    HW146551   4.028   1.724   1.269
14848SOL    HW246552   3.960   1.754   1.138
14849SOL     OW46553   4.683   1.703   0.882
14849SOL    HW146554   4.765   1.655   0.898
14849SOL    HW246555   4.638   1.644   0.820
14850SOL     OW46556   4.102   0.700   0.472
14850SOL    HW146557   4.113   0.602   0.482
14850SOL    HW246558   4.012   0.712   0.506
14851SOL     OW46559   5.260   0.242   1.718
14851SOL    HW146560   5.264   0.250   1.816
14851SOL    HW246561   5.196   0.170   1.712
14852SOL     OW46562   4.321   0.105   0.094
14852SOL    HW146563   4.395   0.048   0.121
14852SOL    HW246564   4.299   0.075   0.005
14853SOL     OW46565   4.499   0.292   1.752
14853SOL    HW146566   4.582   0.241   1.757
14853SOL    HW246567   4.448   0.254   1.826
14854SOL     OW46568   4.599   1.547   1.192
14854SOL    HW146569   4.596   1.520   1.098
14854SOL    HW246570   4.656   1.479   1.231
14855SOL     OW46571   5.042   0.592   1.441
14855SOL    HW146572   5.085   0.557   1.521
14855SOL    HW246573   5.095   0.671   1.420
14856SOL     OW46574   4.540   1.406   0.933
14856SOL    HW146575   4.628   1.393   0.892
14856SOL    HW246576   4.482   1.406   0.856
14857SOL     OW46577   4.671   0.524   0.906
14857SOL    HW146578   4.646   0.503   0.813
14857SOL    HW246579   4.704   0.438   0.936
14858SOL     OW46580   4.282   0.051   0.509
14858SOL    HW146581   4.193   0.043   0.547
14858SOL    HW246582   4.274   0.133   0.457
14859SOL     OW46583   5.164   1.165   0.005
14859SOL    HW146584   5.205   1.100   0.065
14859SOL    HW246585   5.088   1.194   0.057
14860SOL     OW46586   4.013   0.033   0.219
14860SOL    HW146587   4.026   0.098   0.147
14860SOL    HW246588   4.096  11.087   0.218
14861SOL     OW46589   4.665   0.251   0.470
14861SOL    HW146590   4.637   0.293   0.386
14861SOL    HW246591   4.761   0.261   0.465
14862SOL     OW46592   4.816   0.716   1.472
14862SOL    HW146593   4.750   0.644   1.476
14862SOL    HW246594   4.900   0.667   1.465
14863SOL     OW46595   4.974   1.570   0.767
14863SOL    HW146596   4.969   1.644   0.703
14863SOL    HW246597   5.034   1.605   0.834
14864SOL     OW46598   4.197   1.144   0.742
14864SOL    HW146599   4.124   1.122   0.804
14864SOL    HW246600   4.152   1.126   0.656
14865SOL     OW46601   4.968   1.810   0.617
14865SOL    HW146602   5.031   1.873   0.576
14865SOL    HW246603   4.922   1.865   0.682
14866SOL     OW46604   4.738   0.538   0.001
14866SOL    HW146605   4.707   0.630  11.095
14866SOL    HW246606   4.826   0.550   0.039
14867SOL     OW46607   3.782   0.564   1.391
14867SOL    HW146608   3.877   0.553   1.372
14867SOL    HW246609   3.784   0.635   1.458
14868SOL     OW46610   4.284   0.224   1.184
14868SOL    HW146611   4.326   0.171   1.253
14868SOL    HW246612   4.190   0.223   1.212
14869SOL     OW46613   4.610   0.438   0.657
14869SOL    HW146614   4.559   0.492   0.596
14869SOL    HW246615   4.629   0.359   0.602
14870SOL     OW46616   4.720   0.017   0.776
14870SOL    HW146617   4.665   0.043   0.701
14870SOL    HW246618   4.693  11.027   0.792
14871SOL     OW46619   5.152   1.187   0.874
14871SOL    HW146620   5.078   1.126   0.886
14871SOL    HW246621   5.165   1.182   0.778
14872SOL     OW46622   5.196   0.618   0.978
14872SOL    HW146623   5.139   0.540   0.989
14872SOL    HW246624   5.262   0.606   1.049
14873SOL     OW46625   5.596   0.816   0.362
14873SOL    HW146626   5.636   0.762   0.433
14873SOL    HW246627   5.565   0.747   0.301
14874SOL     OW46628   4.219   1.434   0.136
14874SOL    HW146629   4.141   1.414   0.192
14874SOL    HW246630   4.216   1.362   0.069
14875SOL     OW46631   5.393   1.286   0.649
14875SOL    HW146632   5.489   1.291   0.662
14875SOL    HW246633   5.362   1.375   0.675
14876SOL     OW46634   5.108   0.604   0.080
14876SOL    HW146635   5.075   0.572   0.167
14876SOL    HW246636   5.164   0.533   0.050
14877SOL     OW46637   4.249   0.250   0.316
14877SOL    HW146638   4.260   0.190   0.239
14877SOL    HW246639   4.230   0.335   0.271
14878SOL     OW46640   5.455   1.231   1.576
14878SOL    HW146641   5.545   1.196   1.579
14878SOL    HW246642   5.472   1.326   1.590
14879SOL     OW46643   4.783   1.373   1.335
14879SOL    HW146644   4.705   1.342   1.385
14879SOL    HW246645   4.854   1.318   1.375
14880SOL     OW46646   5.332   1.605   1.641
14880SOL    HW146647   5.336   1.648   1.554
14880SOL    HW246648   5.415   1.555   1.640
14881SOL     OW46649   4.857   1.220   1.106
14881SOL    HW146650   4.787   1.259   1.161
14881SOL    HW246651   4.833   1.249   1.017
14882SOL     OW46652   5.320   1.087   1.069
14882SOL    HW146653   5.329   1.154   1.139
14882SOL    HW246654   5.267   1.136   1.004
14883SOL     OW46655   4.637   0.109   1.411
14883SOL    HW146656   4.663   0.086   1.320
14883SOL    HW246657   4.722   0.132   1.451
14884SOL     OW46658   4.724   1.128   1.743
14884SOL    HW146659   4.633   1.155   1.761
14884SOL    HW246660   4.712   1.051   1.684
14885SOL     OW46661   4.458   1.054   0.381
14885SOL    HW146662   4.447   1.030   0.475
14885SOL    HW246663   4.535   0.998   0.354
14886SOL     OW46664   4.131   0.800   1.270
14886SOL    HW146665   4.211   0.794   1.326
14886SOL    HW246666   4.093   0.710   1.278
14887SOL     OW46667   5.025   0.384   1.272
14887SOL    HW146668   5.028   0.460   1.335
14887SOL    HW246669   4.936   0.394   1.235
14888SOL     OW46670   3.799   1.568   1.347
14888SOL    HW146671   3.797   1.658   1.311
14888SOL    HW246672   3.894   1.547   1.347
14889SOL     OW46673   4.084   1.104   0.503
14889SOL    HW146674   4.080   1.180   0.445
14889SOL    HW246675   4.067   1.031   0.440
14890SOL     OW46676   4.255   0.552   0.846
14890SOL    HW146677   4.285   0.618   0.780
14890SOL    HW246678   4.324   0.556   0.914
14891SOL     OW46679   4.957   1.341   0.404
14891SOL    HW146680   5.002   1.422   0.436
14891SOL    HW246681   4.865   1.357   0.430
14892SOL     OW46682   5.014   1.468   1.169
14892SOL    HW146683   5.076   1.460   1.244
14892SOL    HW246684   4.951   1.398   1.187
14893SOL     OW46685   5.296   0.634   0.469
14893SOL    HW146686   5.257   0.670   0.551
14893SOL    HW246687   5.322   0.714   0.423
14894SOL     OW46688   4.063   1.508   1.325
14894SOL    HW146689   4.050   1.474   1.233
14894SOL    HW246690   4.155   1.537   1.319
14895SOL     OW46691   4.157   0.722   1.617
14895SOL    HW146692   4.217   0.769   1.557
14895SOL    HW246693   4.189   0.631   1.607
14896SOL     OW46694   5.359   0.769   1.685
14896SOL    HW146695   5.269   0.806   1.686
14896SOL    HW246696   5.398   0.815   1.609
14897SOL     OW46697   4.730   0.148   1.771
14897SOL    HW146698   4.789   0.222   1.750
14897SOL    HW246699   4.778   0.074   1.732
14898SOL     OW46700   4.228   0.057   1.751
14898SOL    HW146701   4.174  11.101   1.696
14898SOL    HW246702   4.165   0.131   1.768
14899SOL     OW46703   4.322   0.892   1.051
14899SOL    HW146704   4.345   0.986   1.042
14899SOL    HW246705   4.260   0.891   1.125
14900SOL     OW46706   5.074   0.875   1.008
14900SOL    HW146707   4.989   0.835   0.983
14900SOL    HW246708   5.129   0.796   1.017
14901SOL     OW46709   4.961   0.507   0.283
14901SOL    HW146710   4.967   0.435   0.348
14901SOL    HW246711   4.893   0.564   0.324
14902SOL     OW46712   4.027   0.216   1.267
14902SOL    HW146713   3.985   0.256   1.346
14902SOL    HW246714   3.977   0.134   1.257
14903SOL     OW46715   3.755   1.304   1.285
14903SOL    HW146716   3.781   1.245   1.358
14903SOL    HW246717   3.763   1.393   1.323
14904SOL     OW46718   4.432   0.605   1.044
14904SOL    HW146719   4.520   0.591   1.003
14904SOL    HW246720   4.418   0.701   1.035
14905SOL     OW46721   5.494   0.965   1.848
14905SOL    HW146722   5.449   0.903   1.788
14905SOL    HW246723   5.426   0.978   1.916
14906SOL     OW46724   4.018   0.026   0.630
14906SOL    HW146725   3.997   0.120   0.632
14906SOL    HW246726   4.019   0.004   0.725
14907SOL     OW46727   5.330   0.396   0.325
14907SOL    HW146728   5.348   0.329   0.393
14907SOL    HW246729   5.310   0.474   0.380
14908SOL     OW46730   4.813   0.745   0.977
14908SOL    HW146731   4.780   0.762   1.068
14908SOL    HW246732   4.768   0.661   0.958
14909SOL     OW46733   4.698   1.566   1.699
14909SOL    HW146734   4.690   1.620   1.617
14909SOL    HW246735   4.736   1.483   1.664
14910SOL     OW46736   5.571   1.489   1.603
14910SOL    HW146737   5.597   1.515   1.513
14910SOL    HW246738   5.650   1.515   1.654
14911SOL     OW46739   4.083   0.907   1.791
14911SOL    HW146740   4.163   0.918   1.845
14911SOL    HW246741   4.106   0.830   1.736
14912SOL     OW46742   5.263   0.248   0.101
14912SOL    HW146743   5.184   0.203   0.134
14912SOL    HW246744   5.287   0.305   0.176
14913SOL     OW46745   5.004   0.839   0.023
14913SOL    HW146746   5.046   0.753   0.045
14913SOL    HW246747   5.030   0.849  11.033
14914SOL     OW46748   4.792   1.363   0.848
14914SOL    HW146749   4.801   1.283   0.793
14914SOL    HW246750   4.861   1.422   0.814
14915SOL     OW46751   4.019   0.827   0.987
14915SOL    HW146752   4.112   0.840   0.965
14915SOL    HW246753   4.017   0.734   1.015
14916SOL     OW46754   4.048   0.538   1.001
14916SOL    HW146755   4.014   0.449   0.982
14916SOL    HW246756   4.120   0.545   0.935
14917SOL     OW46757   4.886   0.377   1.696
14917SOL    HW146758   4.837   0.430   1.761
14917SOL    HW246759   4.970   0.426   1.691
14918SOL     OW46760   4.918   0.218   1.478
14918SOL    HW146761   4.906   0.286   1.547
14918SOL    HW246762   4.941   0.270   1.400
14919SOL     OW46763   3.714   1.342   0.222
14919SOL    HW146764   3.628   1.349   0.175
14919SOL    HW246765   3.724   1.245   0.229
14920SOL     OW46766   3.818   1.772   0.937
14920SOL    HW146767   3.786   1.707   0.871
14920SOL    HW246768   3.910   1.788   0.908
14921SOL     OW46769   4.210   1.572   0.915
14921SOL    HW146770   4.283   1.637   0.919
14921SOL    HW246771   4.245   1.506   0.851
14922SOL     OW46772   4.696   0.754   1.223
14922SOL    HW146773   4.757   0.742   1.299
14922SOL    HW246774   4.611   0.740   1.266
14923SOL     OW46775   3.756   0.546   1.106
14923SOL    HW146776   3.827   0.507   1.053
14923SOL    HW246777   3.794   0.548   1.195
14924SOL     OW46778   3.938   0.519   1.720
14924SOL    HW146779   3.992   0.467   1.658
14924SOL    HW246780   3.906   0.592   1.663
14925SOL     OW46781   5.120   0.906   1.647
14925SOL    HW146782   5.139   1.001   1.649
14925SOL    HW246783   5.107   0.890   1.552
14926SOL     OW46784   4.531   0.572   0.383
14926SOL    HW146785   4.557   0.499   0.324
14926SOL    HW246786   4.460   0.616   0.333
14927SOL     OW46787   5.369   0.608   1.190
14927SOL    HW146788   5.355   0.537   1.254
14927SOL    HW246789   5.460   0.590   1.160
14928SOL     OW46790   3.967   1.536   1.720
14928SOL    HW146791   3.962   1.608   1.785
14928SOL    HW246792   3.972   1.457   1.776
14929SOL     OW46793   4.408   0.460   1.267
14929SOL    HW146794   4.360   0.381   1.235
14929SOL    HW246795   4.405   0.518   1.188
14930SOL     OW46796   4.651   1.700   1.474
14930SOL    HW146797   4.640   1.667   1.384
14930SOL    HW246798   4.646   1.797   1.463
14931SOL     OW46799   4.194   0.478   0.196
14931SOL    HW146800   4.251   0.555   0.212
14931SOL    HW246801   4.106   0.522   0.198
14932SOL     OW46802   3.830   1.131   1.472
14932SOL    HW146803   3.847   1.073   1.550
14932SOL    HW246804   3.852   1.070   1.397
14933SOL     OW46805   5.038   1.043   1.226
14933SOL    HW146806   5.060   0.990   1.147
14933SOL    HW246807   4.968   1.101   1.191
14934SOL     OW46808   5.035   0.862   0.301
14934SOL    HW146809   4.955   0.826   0.341
14934SOL    HW246810   5.015   0.854   0.206
14935SOL     OW46811   5.486   1.754   1.133
14935SOL    HW146812   5.557   1.773   1.068
14935SOL    HW246813   5.472   1.658   1.117
14936SOL     OW46814   4.968   1.726   1.104
14936SOL    HW146815   5.057   1.751   1.075
14936SOL    HW246816   4.978   1.630   1.124
14937SOL     OW46817   3.825   1.245   1.038
14937SOL    HW146818   3.790   1.268   1.127
14937SOL    HW246819   3.748   1.204   0.996
14938SOL     OW46820   4.420   1.638   1.742
14938SOL    HW146821   4.385   1.724   1.717
14938SOL    HW246822   4.514   1.645   1.718
14939SOL     OW46823   4.608   0.102   0.092
14939SOL    HW146824   4.667   0.069   0.024
14939SOL    HW246825   4.645   0.056   0.170
14940SOL     OW46826   5.427   0.118   0.498
14940SOL    HW146827   5.506   0.130   0.440
14940SOL    HW246828   5.461   0.061   0.568
14941SOL     OW46829   5.084   1.569   0.480
14941SOL    HW146830   5.157   1.580   0.416
14941SOL    HW246831   5.056   1.660   0.493
14942SOL     OW46832   3.870   1.796   1.826
14942SOL    HW146833   3.829   1.724   1.877
14942SOL    HW246834   3.914   1.845   1.898
14943SOL     OW46835   4.983   0.914   0.656
14943SOL    HW146836   5.063   0.859   0.668
14943SOL    HW246837   5.021   0.997   0.620
14944SOL     OW46838   4.525   1.251   1.423
14944SOL    HW146839   4.501   1.301   1.504
14944SOL    HW246840   4.447   1.266   1.368
14945SOL     OW46841   4.405   1.621   0.166
14945SOL    HW146842   4.417   1.627   0.071
14945SOL    HW246843   4.339   1.548   0.172
14946SOL     OW46844   5.350   1.725   1.398
14946SOL    HW146845   5.397   1.744   1.314
14946SOL    HW246846   5.332   1.815   1.431
14947SOL     OW46847   5.588   0.127   0.953
14947SOL    HW146848   5.619   0.063   0.888
14947SOL    HW246849   5.510   0.167   0.908
14948SOL     OW46850   3.982   0.298   0.713
14948SOL    HW146851   3.894   0.330   0.687
14948SOL    HW246852   3.979   0.305   0.810
14949SOL     OW46853   4.928   1.599   0.026
14949SOL    HW146854   4.943   1.510   0.062
14949SOL    HW246855   4.851   1.584  11.068
14950SOL     OW46856   4.549   0.992   1.375
14950SOL    HW146857   4.577   0.997   1.283
14950SOL    HW246858   4.544   1.087   1.399
14951SOL     OW46859   4.653   0.909   0.291
14951SOL    HW146860   4.710   0.941   0.218
14951SOL    HW246861   4.687   0.821   0.309
14952SOL     OW46862   5.224   1.595   0.042
14952SOL    HW146863   5.129   1.605   0.027
14952SOL    HW246864   5.265   1.622  11.060
14953SOL     OW46865   4.066   1.276   1.484
14953SOL    HW146866   4.064   1.349   1.420
14953SOL    HW246867   3.982   1.230   1.467
14954SOL     OW46868   5.324   1.300   1.258
14954SOL    HW146869   5.374   1.277   1.337
14954SOL    HW246870   5.268   1.373   1.290
14955SOL     OW46871   4.783   1.120   0.732
14955SOL    HW146872   4.706   1.068   0.761
14955SOL    HW246873   4.838   1.052   0.690
14956SOL     OW46874   4.767   0.240   0.969
14956SOL    HW146875   4.757   0.184   0.890
14956SOL    HW246876   4.746   0.177   1.039
14957SOL     OW46877   4.335   1.478   0.483
14957SOL    HW146878   4.380   1.426   0.413
14957SOL    HW246879   4.259   1.516   0.436
14958SOL     OW46880   5.434   0.376   1.383
14958SOL    HW146881   5.496   0.451   1.374
14958SOL    HW246882   5.475   0.311   1.322
14959SOL     OW46883   3.972   1.364   0.268
14959SOL    HW146884   3.878   1.353   0.242
14959SOL    HW246885   3.963   1.392   0.362
14960SOL     OW46886   3.850   0.990   1.692
14960SOL    HW146887   3.783   0.978   1.762
14960SOL    HW246888   3.934   0.967   1.738
14961SOL     OW46889   4.393   0.220   1.487
14961SOL    HW146890   4.477   0.178   1.457
14961SOL    HW246891   4.420   0.253   1.574
14962SOL     OW46892   3.837   0.398   0.007
14962SOL    HW146893   3.764   0.340  11.082
14962SOL    HW246894   3.805   0.482  11.074
14963SOL     OW46895   5.169   0.849   1.384
14963SOL    HW146896   5.131   0.916   1.323
14963SOL    HW246897   5.264   0.869   1.378
14964SOL     OW46898   3.779   0.154   0.335
14964SOL    HW146899   3.779   0.218   0.264
14964SOL    HW246900   3.866   0.112   0.324
14965SOL     OW46901   4.917   1.345   0.132
14965SOL    HW146902   4.824   1.319   0.123
14965SOL    HW246903   4.933   1.334   0.228
14966SOL     OW46904   4.346   0.797   1.425
14966SOL    HW146905   4.396   0.880   1.421
14966SOL    HW246906   4.418   0.732   1.435
14967SOL     OW46907   5.232   1.767   0.958
14967SOL    HW146908   5.273   1.805   0.879
14967SOL    HW246909   5.307   1.758   1.018
14968SOL     OW46910   4.443   0.569   1.692
14968SOL    HW146911   4.493   0.632   1.748
14968SOL    HW246912   4.457   0.484   1.737
14969SOL     OW46913   5.188   1.180   1.620
14969SOL    HW146914   5.178   1.187   1.718
14969SOL    HW246915   5.283   1.200   1.608
14970SOL     OW46916   4.095   1.729   1.555
14970SOL    HW146917   4.012   1.780   1.544
14970SOL    HW246918   4.061   1.643   1.586
14971SOL     OW46919   5.421   0.900   1.236
14971SOL    HW146920   5.393   0.814   1.203
14971SOL    HW246921   5.382   0.962   1.171
14972SOL     OW46922   4.957   0.312   0.478
14972SOL    HW146923   5.021   0.239   0.470
14972SOL    HW246924   4.984   0.357   0.560
14973SOL     OW46925   4.314   0.748   0.672
14973SOL    HW146926   4.347   0.837   0.650
14973SOL    HW246927   4.244   0.734   0.606
14974SOL     OW46928   5.491   0.373   1.646
14974SOL    HW146929   5.464   0.377   1.552
14974SOL    HW246930   5.421   0.315   1.681
14975SOL     OW46931   5.460   0.931   1.498
14975SOL    HW146932   5.463   1.028   1.502
14975SOL    HW246933   5.465   0.915   1.401
14976SOL     OW46934   4.624   1.347   0.047
14976SOL    HW146935   4.548   1.352   0.107
14976SOL    HW246936   4.624   1.433   0.002
14977SOL     OW46937   4.364   1.799   0.900
14977SOL    HW146938   4.347   1.895   0.893
14977SOL    HW246939   4.458   1.794   0.922
14978SOL     OW46940   4.599   0.955   0.842
14978SOL    HW146941   4.641   0.876   0.879
14978SOL    HW246942   4.582   1.009   0.920
14979SOL     OW46943   4.780   0.996   0.067
14979SOL    HW146944   4.790   1.062  11.099
14979SOL    HW246945   4.860   0.942   0.055
14980SOL     OW46946   5.578   1.554   0.815
14980SOL    HW146947   5.484   1.545   0.796
14980SOL    HW246948   5.591   1.492   0.888
14981SOL     OW46949   3.964   1.309   1.865
14981SOL    HW146950   3.885   1.262   1.836
14981SOL    HW246951   3.950   1.314   1.961
14982SOL     OW46952   3.820   1.233   0.649
14982SOL    HW146953   3.808   1.173   0.724
14982SOL    HW246954   3.898   1.195   0.605
14983SOL     OW46955   4.403   1.398   1.614
14983SOL    HW146956   4.327   1.345   1.646
14983SOL    HW246957   4.387   1.484   1.656
14984SOL     OW46958   5.540   0.193   1.219
14984SOL    HW146959   5.516   0.098   1.221
14984SOL    HW246960   5.562   0.203   1.125
14985SOL     OW46961   4.127   0.432   0.520
14985SOL    HW146962   4.176   0.365   0.469
14985SOL    HW246963   4.093   0.381   0.595
14986SOL     OW46964   5.444   1.498   1.087
14986SOL    HW146965   5.360   1.468   1.047
14986SOL    HW246966   5.451   1.437   1.161
14987SOL     OW46967   4.043   0.546   1.283
14987SOL    HW146968   4.109   0.500   1.337
14987SOL    HW246969   4.068   0.524   1.191
14988SOL     OW46970   4.541   1.575   0.674
14988SOL    HW146971   4.531   1.561   0.579
14988SOL    HW246972   4.455   1.544   0.705
14989SOL     OW46973   5.174   0.258   1.085
14989SOL    HW146974   5.192   0.173   1.127
14989SOL    HW246975   5.133   0.308   1.158
14990SOL     OW46976   4.720   0.009   1.165
14990SOL    HW146977   4.673  11.025   1.156
14990SOL    HW246978   4.813  11.084   1.149
14991SOL     OW46979   4.489   1.325   0.325
14991SOL    HW146980   4.471   1.229   0.332
14991SOL    HW246981   4.568   1.332   0.382
14992SOL     OW46982   4.322   1.561   1.268
14992SOL    HW146983   4.327   1.647   1.314
14992SOL    HW246984   4.414   1.552   1.240
14993SOL     OW46985   5.046   0.064   0.159
14993SOL    HW146986   5.076  11.095   0.100
14993SOL    HW246987   4.953   0.041   0.175
14994SOL     OW46988   5.008   0.463   0.698
14994SOL    HW146989   4.944   0.536   0.687
14994SOL    HW246990   4.998   0.442   0.793
14995SOL     OW46991   5.348   0.224   0.860
14995SOL    HW146992   5.279   0.236   0.928
14995SOL    HW246993   5.335   0.305   0.807
14996SOL     OW46994   3.772   1.081   0.278
14996SOL    HW146995   3.867   1.082   0.295
14996SOL    HW246996   3.750   0.988   0.298
14997SOL     OW46997   4.619   1.643   0.353
14997SOL    HW146998   4.538   1.626   0.301
14997SOL    HW246999   4.594   1.726   0.402
14998SOL     OW47000   3.961   0.625   1.984
14998SOL    HW147001   3.870   0.611   2.011
14998SOL    HW247002   3.960   0.608   1.888
14999SOL     OW47003   3.934   0.297   2.858
14999SOL    HW147004   3.959   0.280   2.951
14999SOL    HW247005   3.874   0.223   2.840
15000SOL     OW47006   3.734   0.407   2.503
15000SOL    HW147007   3.650   0.425   2.547
15000SOL    HW247008   3.715   0.326   2.453
15001SOL     OW47009   4.295   1.290   3.067
15001SOL    HW147010   4.214   1.294   3.015
15001SOL    HW247011   4.308   1.383   3.091
15002SOL     OW47012   5.274   1.520   2.566
15002SOL    HW147013   5.236   1.516   2.657
15002SOL    HW247014   5.196   1.521   2.507
15003SOL     OW47015   4.849   0.689   2.565
15003SOL    HW147016   4.885   0.779   2.546
15003SOL    HW247017   4.824   0.698   2.658
15004SOL     OW47018   5.503   0.609   2.095
15004SOL    HW147019   5.481   0.595   2.001
15004SOL    HW247020   5.467   0.528   2.133
15005SOL     OW47021   4.443   1.163   2.879
15005SOL    HW147022   4.391   1.208   2.947
15005SOL    HW247023   4.495   1.237   2.842
15006SOL     OW47024   4.604   0.765   3.666
15006SOL    HW147025   4.582   0.825   3.739
15006SOL    HW247026   4.631   0.827   3.595
15007SOL     OW47027   4.404   1.030   2.515
15007SOL    HW147028   4.474   1.006   2.579
15007SOL    HW247029   4.341   1.078   2.572
15008SOL     OW47030   4.438   1.155   3.665
15008SOL    HW147031   4.483   1.239   3.690
15008SOL    HW247032   4.349   1.187   3.640
15009SOL     OW47033   4.058   1.420   2.923
15009SOL    HW147034   3.982   1.385   2.873
15009SOL    HW247035   4.105   1.476   2.858
15010SOL     OW47036   5.199   1.501   3.239
15010SOL    HW147037   5.205   1.596   3.224
15010SOL    HW247038   5.123   1.496   3.299
15011SOL     OW47039   4.166   0.411   3.358
15011SOL    HW147040   4.243   0.353   3.349
15011SOL    HW247041   4.091   0.349   3.355
15012SOL     OW47042   5.330   0.458   2.600
15012SOL    HW147043   5.271   0.485   2.529
15012SOL    HW247044   5.322   0.532   2.662
15013SOL     OW47045   3.945   1.699   2.340
15013SOL    HW147046   3.970   1.779   2.391
15013SOL    HW247047   4.004   1.706   2.263
15014SOL     OW47048   4.858   1.353   3.541
15014SOL    HW147049   4.894   1.350   3.630
15014SOL    HW247050   4.815   1.265   3.535
15015SOL     OW47051   3.969   1.430   2.397
15015SOL    HW147052   3.972   1.528   2.395
15015SOL    HW247053   3.906   1.413   2.468
15016SOL     OW47054   3.974   1.088   2.755
15016SOL    HW147055   3.996   1.015   2.814
15016SOL    HW247056   3.931   1.151   2.816
15017SOL     OW47057   4.310   1.808   3.258
15017SOL    HW147058   4.250   1.777   3.328
15017SOL    HW247059   4.341   1.894   3.294
15018SOL     OW47060   4.297   0.990   1.981
15018SOL    HW147061   4.347   1.039   1.913
15018SOL    HW247062   4.343   1.020   2.062
15019SOL     OW47063   5.329   0.095   3.349
15019SOL    HW147064   5.347   0.139   3.265
15019SOL    HW247065   5.292   0.167   3.402
15020SOL     OW47066   3.845   0.661   2.433
15020SOL    HW147067   3.825   0.568   2.455
15020SOL    HW247068   3.838   0.706   2.519
15021SOL     OW47069   5.575   1.731   2.218
15021SOL    HW147070   5.640   1.715   2.289
15021SOL    HW247071   5.596   1.822   2.193
15022SOL     OW47072   3.781   1.599   1.978
15022SOL    HW147073   3.768   1.505   2.000
15022SOL    HW247074   3.751   1.644   2.060
15023SOL     OW47075   5.417   0.911   2.479
15023SOL    HW147076   5.479   0.872   2.416
15023SOL    HW247077   5.375   0.980   2.425
15024SOL     OW47078   5.365   1.127   2.305
15024SOL    HW147079   5.455   1.121   2.270
15024SOL    HW247080   5.375   1.191   2.379
15025SOL     OW47081   3.865   0.739   3.443
15025SOL    HW147082   3.962   0.750   3.438
15025SOL    HW247083   3.842   0.819   3.495
15026SOL     OW47084   4.330   1.415   2.616
15026SOL    HW147085   4.287   1.328   2.631
15026SOL    HW247086   4.312   1.428   2.521
15027SOL     OW47087   5.004   1.237   3.288
15027SOL    HW147088   5.042   1.169   3.230
15027SOL    HW247089   5.057   1.226   3.369
15028SOL     OW47090   4.549   0.003   2.395
15028SOL    HW147091   4.581   0.092   2.371
15028SOL    HW247092   4.455   0.007   2.369
15029SOL     OW47093   3.893   0.952   3.127
15029SOL    HW147094   3.988   0.931   3.124
15029SOL    HW247095   3.855   0.887   3.068
15030SOL     OW47096   5.251   0.974   2.051
15030SOL    HW147097   5.173   0.925   2.083
15030SOL    HW247098   5.293   1.003   2.133
15031SOL     OW47099   4.904   1.806   3.473
15031SOL    HW147100   4.914   1.858   3.393
15031SOL    HW247101   4.930   1.718   3.441
15032SOL     OW47102   4.044   0.258   3.671
15032SOL    HW147103   4.095   0.328   3.712
15032SOL    HW247104   3.954   0.277   3.703
15033SOL     OW47105   5.210   1.427   2.820
15033SOL    HW147106   5.144   1.437   2.892
15033SOL    HW247107   5.185   1.339   2.787
15034SOL     OW47108   5.385   1.741   2.469
15034SOL    HW147109   5.367   1.703   2.382
15034SOL    HW247110   5.352   1.669   2.526
15035SOL     OW47111   4.309   0.712   2.124
15035SOL    HW147112   4.315   0.798   2.079
15035SOL    HW247113   4.241   0.728   2.192
15036SOL     OW47114   4.989   0.372   2.787
15036SOL    HW147115   4.904   0.326   2.802
15036SOL    HW247116   5.050   0.320   2.842
15037SOL     OW47117   5.299   1.640   2.172
15037SOL    HW147118   5.393   1.658   2.181
15037SOL    HW247119   5.291   1.638   2.075
15038SOL     OW47120   4.539   0.609   3.315
15038SOL    HW147121   4.508   0.585   3.406
15038SOL    HW247122   4.490   0.544   3.260
15039SOL     OW47123   5.119   0.487   3.531
15039SOL    HW147124   5.117   0.538   3.614
15039SOL    HW247125   5.182   0.416   3.550
15040SOL     OW47126   4.692   0.914   3.454
15040SOL    HW147127   4.746   0.839   3.422
15040SOL    HW247128   4.643   0.935   3.373
15041SOL     OW47129   4.732   0.381   3.093
15041SOL    HW147130   4.648   0.405   3.134
15041SOL    HW247131   4.706   0.338   3.011
15042SOL     OW47132   4.773   0.700   2.290
15042SOL    HW147133   4.791   0.700   2.386
15042SOL    HW247134   4.689   0.650   2.285
15043SOL     OW47135   3.821   0.842   2.660
15043SOL    HW147136   3.898   0.818   2.716
15043SOL    HW247137   3.824   0.939   2.669
15044SOL     OW47138   3.797   1.828   3.427
15044SOL    HW147139   3.825   1.790   3.513
15044SOL    HW247140   3.751   1.906   3.457
15045SOL     OW47141   4.602   0.351   2.087
15045SOL    HW147142   4.650   0.402   2.020
15045SOL    HW247143   4.578   0.273   2.035
15046SOL     OW47144   5.437   0.560   3.694
15046SOL    HW147145   5.407   0.642   3.649
15046SOL    HW247146   5.459   0.505   3.616
15047SOL     OW47147   5.086   1.147   2.416
15047SOL    HW147148   5.168   1.147   2.366
15047SOL    HW247149   5.036   1.216   2.369
15048SOL     OW47150   4.262   0.200   2.740
15048SOL    HW147151   4.285   0.214   2.833
15048SOL    HW247152   4.262   0.289   2.703
15049SOL     OW47153   4.714   1.442   2.353
15049SOL    HW147154   4.676   1.509   2.293
15049SOL    HW247155   4.724   1.491   2.436
15050SOL     OW47156   4.069   1.816   2.719
15050SOL    HW147157   4.123   1.734   2.726
15050SOL    HW247158   4.136   1.885   2.738
15051SOL     OW47159   5.551   1.041   2.727
15051SOL    HW147160   5.492   1.025   2.652
15051SOL    HW247161   5.492   1.027   2.802
15052SOL     OW47162   4.955   1.551   3.372
15052SOL    HW147163   4.929   1.481   3.434
15052SOL    HW247164   4.921   1.517   3.289
15053SOL     OW47165   4.032   0.950   2.116
15053SOL    HW147166   4.112   0.970   2.064
15053SOL    HW247167   4.005   0.864   2.080
15054SOL     OW47168   5.201   0.750   2.577
15054SOL    HW147169   5.194   0.706   2.663
15054SOL    HW247170   5.278   0.808   2.589
15055SOL     OW47171   4.194   1.264   3.590
15055SOL    HW147172   4.156   1.262   3.500
15055SOL    HW247173   4.113   1.275   3.643
15056SOL     OW47174   4.807   1.780   2.110
15056SOL    HW147175   4.740   1.722   2.150
15056SOL    HW247176   4.825   1.736   2.025
15057SOL     OW47177   3.905   0.301   3.367
15057SOL    HW147178   3.828   0.348   3.403
15057SOL    HW247179   3.914   0.226   3.429
15058SOL     OW47180   5.345   1.368   1.967
15058SOL    HW147181   5.306   1.450   1.933
15058SOL    HW247182   5.287   1.299   1.929
15059SOL     OW47183   4.176   1.735   2.181
15059SOL    HW147184   4.229   1.779   2.250
15059SOL    HW247185   4.244   1.699   2.122
15060SOL     OW47186   5.118   0.082   2.307
15060SOL    HW147187   5.121   0.072   2.210
15060SOL    HW247188   5.209   0.103   2.331
15061SOL     OW47189   3.959   1.788   3.087
15061SOL    HW147190   4.026   1.729   3.125
15061SOL    HW247191   3.954   1.758   2.995
15062SOL     OW47192   4.688   1.701   2.748
15062SOL    HW147193   4.765   1.647   2.769
15062SOL    HW247194   4.643   1.647   2.680
15063SOL     OW47195   4.101   0.679   2.326
15063SOL    HW147196   4.121   0.583   2.334
15063SOL    HW247197   4.007   0.681   2.348
15064SOL     OW47198   5.263   0.238   3.578
15064SOL    HW147199   5.265   0.247   3.676
15064SOL    HW247200   5.203   0.163   3.571
15065SOL     OW47201   4.368   0.154   1.952
15065SOL    HW147202   4.403   0.071   1.989
15065SOL    HW247203   4.315   0.120   1.877
15066SOL     OW47204   4.495   0.284   3.610
15066SOL    HW147205   4.579   0.235   3.610
15066SOL    HW247206   4.449   0.244   3.685
15067SOL     OW47207   4.613   1.546   3.060
15067SOL    HW147208   4.605   1.508   2.971
15067SOL    HW247209   4.678   1.487   3.103
15068SOL     OW47210   5.044   0.589   3.297
15068SOL    HW147211   5.085   0.551   3.378
15068SOL    HW247212   5.097   0.670   3.284
15069SOL     OW47213   4.544   1.411   2.798
15069SOL    HW147214   4.633   1.392   2.760
15069SOL    HW247215   4.488   1.412   2.719
15070SOL     OW47216   4.663   0.527   2.770
15070SOL    HW147217   4.639   0.510   2.676
15070SOL    HW247218   4.696   0.440   2.796
15071SOL     OW47219   4.259   0.028   2.361
15071SOL    HW147220   4.173   0.028   2.405
15071SOL    HW247221   4.253   0.108   2.306
15072SOL     OW47222   5.165   1.178   1.885
15072SOL    HW147223   5.189   1.103   1.943
15072SOL    HW247224   5.080   1.207   1.921
15073SOL     OW47225   4.025   0.049   2.085
15073SOL    HW147226   4.085   0.125   2.085
15073SOL    HW247227   4.083  11.078   2.109
15074SOL     OW47228   4.653   0.253   2.349
15074SOL    HW147229   4.626   0.291   2.264
15074SOL    HW247230   4.750   0.258   2.342
15075SOL     OW47231   4.813   0.715   3.329
15075SOL    HW147232   4.749   0.642   3.332
15075SOL    HW247233   4.898   0.667   3.322
15076SOL     OW47234   4.964   1.567   2.640
15076SOL    HW147235   4.959   1.628   2.564
15076SOL    HW247236   5.033   1.605   2.695
15077SOL     OW47237   4.182   1.180   2.603
15077SOL    HW147238   4.108   1.145   2.656
15077SOL    HW247239   4.156   1.153   2.513
15078SOL     OW47240   4.991   1.809   2.452
15078SOL    HW147241   5.039   1.873   2.396
15078SOL    HW247242   4.974   1.860   2.532
15079SOL     OW47243   4.774   0.550   1.871
15079SOL    HW147244   4.725   0.630   1.843
15079SOL    HW247245   4.839   0.585   1.934
15080SOL     OW47246   3.788   0.569   3.256
15080SOL    HW147247   3.882   0.551   3.234
15080SOL    HW247248   3.799   0.638   3.325
15081SOL     OW47249   4.278   0.228   3.035
15081SOL    HW147250   4.320   0.173   3.103
15081SOL    HW247251   4.186   0.232   3.065
15082SOL     OW47252   4.606   0.454   2.524
15082SOL    HW147253   4.557   0.506   2.459
15082SOL    HW247254   4.624   0.371   2.476
15083SOL     OW47255   4.726   0.012   2.634
15083SOL    HW147256   4.675   0.036   2.556
15083SOL    HW247257   4.691  11.026   2.656
15084SOL     OW47258   5.146   1.175   2.747
15084SOL    HW147259   5.099   1.095   2.774
15084SOL    HW247260   5.136   1.172   2.651
15085SOL     OW47261   5.216   0.611   2.823
15085SOL    HW147262   5.155   0.536   2.834
15085SOL    HW247263   5.270   0.606   2.904
15086SOL     OW47264   5.562   0.811   2.259
15086SOL    HW147265   5.624   0.761   2.317
15086SOL    HW247266   5.545   0.744   2.190
15087SOL     OW47267   4.212   1.413   2.002
15087SOL    HW147268   4.129   1.402   2.052
15087SOL    HW247269   4.195   1.364   1.921
15088SOL     OW47270   5.398   1.284   2.527
15088SOL    HW147271   5.495   1.295   2.533
15088SOL    HW247272   5.363   1.372   2.550
15089SOL     OW47273   5.136   0.604   1.926
15089SOL    HW147274   5.089   0.575   2.007
15089SOL    HW247275   5.223   0.561   1.937
15090SOL     OW47276   4.236   0.244   2.170
15090SOL    HW147277   4.300   0.220   2.100
15090SOL    HW247278   4.203   0.330   2.134
15091SOL     OW47279   5.460   1.230   3.439
15091SOL    HW147280   5.547   1.192   3.462
15091SOL    HW247281   5.480   1.325   3.446
15092SOL     OW47282   4.789   1.365   3.183
15092SOL    HW147283   4.712   1.326   3.227
15092SOL    HW247284   4.863   1.317   3.227
15093SOL     OW47285   5.342   1.616   3.500
15093SOL    HW147286   5.337   1.645   3.407
15093SOL    HW247287   5.421   1.559   3.498
15094SOL     OW47288   4.808   1.195   2.961
15094SOL    HW147289   4.782   1.258   3.029
15094SOL    HW247290   4.809   1.249   2.881
15095SOL     OW47291   5.328   1.089   2.935
15095SOL    HW147292   5.327   1.156   3.006
15095SOL    HW247293   5.282   1.138   2.864
15096SOL     OW47294   4.631   0.104   3.267
15096SOL    HW147295   4.652   0.081   3.174
15096SOL    HW247296   4.717   0.133   3.300
15097SOL     OW47297   4.726   1.127   3.605
15097SOL    HW147298   4.633   1.146   3.625
15097SOL    HW247299   4.719   1.052   3.542
15098SOL     OW47300   4.438   1.065   2.204
15098SOL    HW147301   4.427   1.047   2.299
15098SOL    HW247302   4.511   1.003   2.180
15099SOL     OW47303   4.140   0.795   3.127
15099SOL    HW147304   4.214   0.794   3.191
15099SOL    HW247305   4.101   0.706   3.137
15100SOL     OW47306   5.016   0.393   3.117
15100SOL    HW147307   5.021   0.466   3.182
15100SOL    HW247308   4.921   0.394   3.093
15101SOL     OW47309   3.804   1.578   3.198
15101SOL    HW147310   3.823   1.665   3.161
15101SOL    HW247311   3.894   1.539   3.197
15102SOL     OW47312   4.093   1.115   2.361
15102SOL    HW147313   4.120   1.182   2.297
15102SOL    HW247314   4.104   1.034   2.310
15103SOL     OW47315   4.246   0.549   2.691
15103SOL    HW147316   4.279   0.616   2.627
15103SOL    HW247317   4.313   0.552   2.761
15104SOL     OW47318   4.954   1.334   2.261
15104SOL    HW147319   4.998   1.413   2.297
15104SOL    HW247320   4.865   1.343   2.298
15105SOL     OW47321   5.015   1.437   3.000
15105SOL    HW147322   5.018   1.531   3.025
15105SOL    HW247323   4.944   1.403   3.055
15106SOL     OW47324   5.313   0.627   2.335
15106SOL    HW147325   5.267   0.679   2.403
15106SOL    HW247326   5.343   0.694   2.272
15107SOL     OW47327   4.067   1.497   3.170
15107SOL    HW147328   4.063   1.464   3.078
15107SOL    HW247329   4.161   1.524   3.173
15108SOL     OW47330   4.152   0.717   3.477
15108SOL    HW147331   4.216   0.770   3.426
15108SOL    HW247332   4.197   0.631   3.477
15109SOL     OW47333   5.354   0.772   3.545
15109SOL    HW147334   5.265   0.811   3.550
15109SOL    HW247335   5.391   0.818   3.467
15110SOL     OW47336   4.726   0.148   3.627
15110SOL    HW147337   4.785   0.224   3.613
15110SOL    HW247338   4.780   0.076   3.590
15111SOL     OW47339   4.219   0.053   3.609
15111SOL    HW147340   4.163  11.099   3.553
15111SOL    HW247341   4.159   0.128   3.630
15112SOL     OW47342   4.283   0.904   2.888
15112SOL    HW147343   4.331   0.989   2.887
15112SOL    HW247344   4.258   0.894   2.981
15113SOL     OW47345   5.078   0.875   2.883
15113SOL    HW147346   4.994   0.837   2.853
15113SOL    HW247347   5.134   0.797   2.885
15114SOL     OW47348   4.951   0.519   2.126
15114SOL    HW147349   4.964   0.443   2.186
15114SOL    HW247350   4.891   0.574   2.178
15115SOL     OW47351   4.009   0.217   3.119
15115SOL    HW147352   3.966   0.251   3.200
15115SOL    HW247353   3.975   0.127   3.114
15116SOL     OW47354   3.752   1.303   3.148
15116SOL    HW147355   3.780   1.248   3.224
15116SOL    HW247356   3.772   1.393   3.177
15117SOL     OW47357   4.418   0.604   2.888
15117SOL    HW147358   4.510   0.588   2.858
15117SOL    HW247359   4.412   0.700   2.886
15118SOL     OW47360   5.490   0.961   3.703
15118SOL    HW147361   5.444   0.898   3.646
15118SOL    HW247362   5.426   0.973   3.775
15119SOL     OW47363   4.013   0.044   2.480
15119SOL    HW147364   3.992   0.138   2.491
15119SOL    HW247365   4.029   0.020   2.573
15120SOL     OW47366   5.306   0.397   2.197
15120SOL    HW147367   5.348   0.333   2.256
15120SOL    HW247368   5.301   0.477   2.253
15121SOL     OW47369   4.805   0.746   2.830
15121SOL    HW147370   4.775   0.762   2.921
15121SOL    HW247371   4.762   0.659   2.814
15122SOL     OW47372   4.700   1.565   3.563
15122SOL    HW147373   4.696   1.613   3.478
15122SOL    HW247374   4.743   1.481   3.537
15123SOL     OW47375   5.576   1.488   3.459
15123SOL    HW147376   5.598   1.514   3.367
15123SOL    HW247377   5.658   1.510   3.506
15124SOL     OW47378   4.092   0.911   3.648
15124SOL    HW147379   4.169   0.927   3.705
15124SOL    HW247380   4.116   0.830   3.601
15125SOL     OW47381   5.228   0.256   1.976
15125SOL    HW147382   5.152   0.204   2.009
15125SOL    HW247383   5.256   0.307   2.054
15126SOL     OW47384   4.992   0.827   1.872
15126SOL    HW147385   5.047   0.748   1.890
15126SOL    HW247386   5.029   0.856   1.787
15127SOL     OW47387   4.790   1.362   2.711
15127SOL    HW147388   4.807   1.286   2.651
15127SOL    HW247389   4.866   1.421   2.693
15128SOL     OW47390   4.015   0.824   2.855
15128SOL    HW147391   4.108   0.851   2.845
15128SOL    HW247392   4.025   0.730   2.879
15129SOL     OW47393   4.053   0.542   2.865
15129SOL    HW147394   4.019   0.452   2.849
15129SOL    HW247395   4.120   0.549   2.793
15130SOL     OW47396   4.876   0.377   3.548
15130SOL    HW147397   4.830   0.433   3.614
15130SOL    HW247398   4.964   0.419   3.546
15131SOL     OW47399   4.895   0.221   3.324
15131SOL    HW147400   4.891   0.285   3.398
15131SOL    HW247401   4.926   0.277   3.251
15132SOL     OW47402   3.724   1.326   2.049
15132SOL    HW147403   3.631   1.344   2.019
15132SOL    HW247404   3.715   1.237   2.087
15133SOL     OW47405   3.822   1.783   2.813
15133SOL    HW147406   3.794   1.707   2.758
15133SOL    HW247407   3.913   1.798   2.779
15134SOL     OW47408   4.211   1.587   2.781
15134SOL    HW147409   4.278   1.656   2.799
15134SOL    HW247410   4.263   1.523   2.729
15135SOL     OW47411   4.695   0.757   3.079
15135SOL    HW147412   4.758   0.748   3.153
15135SOL    HW247413   4.611   0.749   3.124
15136SOL     OW47414   3.752   0.528   2.975
15136SOL    HW147415   3.828   0.509   2.917
15136SOL    HW247416   3.793   0.528   3.062
15137SOL     OW47417   3.927   0.516   3.576
15137SOL    HW147418   3.991   0.474   3.516
15137SOL    HW247419   3.899   0.595   3.525
15138SOL     OW47420   5.115   0.924   3.522
15138SOL    HW147421   5.136   1.020   3.520
15138SOL    HW247422   5.104   0.905   3.428
15139SOL     OW47423   4.537   0.578   2.236
15139SOL    HW147424   4.551   0.500   2.179
15139SOL    HW247425   4.461   0.621   2.193
15140SOL     OW47426   5.356   0.613   3.054
15140SOL    HW147427   5.334   0.550   3.124
15140SOL    HW247428   5.447   0.586   3.028
15141SOL     OW47429   3.979   1.542   3.584
15141SOL    HW147430   3.968   1.609   3.653
15141SOL    HW247431   3.985   1.459   3.635
15142SOL     OW47432   4.413   0.466   3.122
15142SOL    HW147433   4.367   0.385   3.093
15142SOL    HW247434   4.404   0.523   3.043
15143SOL     OW47435   4.650   1.702   3.334
15143SOL    HW147436   4.657   1.670   3.242
15143SOL    HW247437   4.646   1.798   3.325
15144SOL     OW47438   4.164   0.474   2.056
15144SOL    HW147439   4.229   0.546   2.064
15144SOL    HW247440   4.082   0.526   2.041
15145SOL     OW47441   3.832   1.125   3.330
15145SOL    HW147442   3.850   1.072   3.411
15145SOL    HW247443   3.864   1.066   3.259
15146SOL     OW47444   5.041   1.043   3.097
15146SOL    HW147445   5.059   0.988   3.019
15146SOL    HW247446   4.969   1.099   3.064
15147SOL     OW47447   5.027   0.855   2.155
15147SOL    HW147448   4.946   0.834   2.203
15147SOL    HW247449   4.998   0.857   2.062
15148SOL     OW47450   5.493   1.751   3.003
15148SOL    HW147451   5.554   1.770   2.930
15148SOL    HW247452   5.462   1.662   2.977
15149SOL     OW47453   3.822   1.251   2.894
15149SOL    HW147454   3.784   1.267   2.983
15149SOL    HW247455   3.752   1.201   2.849
15150SOL     OW47456   4.418   1.638   3.602
15150SOL    HW147457   4.394   1.729   3.580
15150SOL    HW247458   4.511   1.633   3.574
15151SOL     OW47459   5.418   0.111   2.357
15151SOL    HW147460   5.496   0.131   2.304
15151SOL    HW247461   5.453   0.054   2.427
15152SOL     OW47462   5.089   1.566   2.343
15152SOL    HW147463   5.154   1.581   2.272
15152SOL    HW247464   5.051   1.654   2.356
15153SOL     OW47465   3.877   1.790   3.691
15153SOL    HW147466   3.827   1.723   3.743
15153SOL    HW247467   3.922   1.839   3.762
15154SOL     OW47468   4.985   0.916   2.533
15154SOL    HW147469   5.064   0.860   2.544
15154SOL    HW247470   5.022   0.992   2.484
15155SOL     OW47471   4.524   1.253   3.284
15155SOL    HW147472   4.503   1.312   3.360
15155SOL    HW247473   4.446   1.267   3.229
15156SOL     OW47474   4.384   1.615   2.014
15156SOL    HW147475   4.402   1.623   1.918
15156SOL    HW247476   4.327   1.535   2.015
15157SOL     OW47477   5.373   1.730   3.257
15157SOL    HW147478   5.399   1.744   3.164
15157SOL    HW247479   5.338   1.817   3.284
15158SOL     OW47480   5.590   0.127   2.809
15158SOL    HW147481   5.608   0.048   2.756
15158SOL    HW247482   5.507   0.161   2.771
15159SOL     OW47483   3.970   0.298   2.567
15159SOL    HW147484   3.887   0.345   2.547
15159SOL    HW247485   3.978   0.309   2.662
15160SOL     OW47486   4.905   1.635   1.892
15160SOL    HW147487   4.915   1.540   1.911
15160SOL    HW247488   4.850   1.635   1.812
15161SOL     OW47489   4.547   0.992   3.234
15161SOL    HW147490   4.590   1.002   3.149
15161SOL    HW247491   4.540   1.085   3.263
15162SOL     OW47492   4.628   0.899   2.127
15162SOL    HW147493   4.703   0.935   2.075
15162SOL    HW247494   4.671   0.830   2.180
15163SOL     OW47495   5.279   1.633   1.902
15163SOL    HW147496   5.184   1.641   1.897
15163SOL    HW247497   5.304   1.632   1.806
15164SOL     OW47498   4.069   1.277   3.353
15164SOL    HW147499   4.070   1.343   3.283
15164SOL    HW247500   3.984   1.231   3.341
15165SOL     OW47501   5.333   1.306   3.125
15165SOL    HW147502   5.367   1.282   3.212
15165SOL    HW247503   5.268   1.376   3.150
15166SOL     OW47504   4.780   1.117   2.584
15166SOL    HW147505   4.704   1.065   2.619
15166SOL    HW247506   4.841   1.047   2.558
15167SOL     OW47507   4.753   0.245   2.831
15167SOL    HW147508   4.749   0.192   2.749
15167SOL    HW247509   4.735   0.176   2.897
15168SOL     OW47510   4.334   1.486   2.351
15168SOL    HW147511   4.386   1.437   2.286
15168SOL    HW247512   4.258   1.514   2.300
15169SOL     OW47513   5.433   0.374   3.246
15169SOL    HW147514   5.491   0.451   3.238
15169SOL    HW247515   5.477   0.311   3.186
15170SOL     OW47516   3.972   1.379   2.137
15170SOL    HW147517   3.875   1.374   2.125
15170SOL    HW247518   3.978   1.400   2.233
15171SOL     OW47519   3.848   0.984   3.556
15171SOL    HW147520   3.778   0.986   3.625
15171SOL    HW247521   3.931   0.969   3.607
15172SOL     OW47522   4.398   0.228   3.342
15172SOL    HW147523   4.478   0.180   3.312
15172SOL    HW247524   4.427   0.255   3.431
15173SOL     OW47525   3.797   0.362   1.892
15173SOL    HW147526   3.706   0.375   1.864
15173SOL    HW247527   3.844   0.425   1.834
15174SOL     OW47528   5.174   0.854   3.260
15174SOL    HW147529   5.134   0.920   3.201
15174SOL    HW247530   5.268   0.868   3.244
15175SOL     OW47531   3.759   0.174   2.183
15175SOL    HW147532   3.757   0.241   2.113
15175SOL    HW247533   3.847   0.134   2.170
15176SOL     OW47534   4.922   1.361   1.982
15176SOL    HW147535   4.832   1.327   1.988
15176SOL    HW247536   4.952   1.354   2.074
15177SOL     OW47537   4.346   0.801   3.292
15177SOL    HW147538   4.402   0.880   3.290
15177SOL    HW247539   4.414   0.732   3.302
15178SOL     OW47540   5.247   1.734   2.791
15178SOL    HW147541   5.274   1.822   2.763
15178SOL    HW247542   5.196   1.750   2.872
15179SOL     OW47543   4.443   0.571   3.562
15179SOL    HW147544   4.494   0.632   3.619
15179SOL    HW247545   4.458   0.484   3.603
15180SOL     OW47546   5.185   1.187   3.493
15180SOL    HW147547   5.179   1.191   3.591
15180SOL    HW247548   5.278   1.211   3.478
15181SOL     OW47549   4.101   1.736   3.427
15181SOL    HW147550   4.011   1.771   3.418
15181SOL    HW247551   4.082   1.646   3.461
15182SOL     OW47552   5.419   0.901   3.100
15182SOL    HW147553   5.391   0.816   3.062
15182SOL    HW247554   5.384   0.966   3.036
15183SOL     OW47555   4.950   0.309   2.313
15183SOL    HW147556   5.001   0.225   2.314
15183SOL    HW247557   4.983   0.354   2.393
15184SOL     OW47558   4.317   0.752   2.525
15184SOL    HW147559   4.334   0.847   2.513
15184SOL    HW247560   4.264   0.729   2.447
15185SOL     OW47561   5.491   0.373   3.507
15185SOL    HW147562   5.465   0.379   3.413
15185SOL    HW247563   5.422   0.313   3.540
15186SOL     OW47564   5.466   0.939   3.362
15186SOL    HW147565   5.466   1.035   3.373
15186SOL    HW247566   5.469   0.929   3.265
15187SOL     OW47567   4.583   1.365   1.894
15187SOL    HW147568   4.554   1.386   1.984
15187SOL    HW247569   4.607   1.451   1.856
15188SOL     OW47570   4.366   1.808   2.786
15188SOL    HW147571   4.363   1.903   2.764
15188SOL    HW247572   4.460   1.790   2.795
15189SOL     OW47573   4.599   0.950   2.699
15189SOL    HW147574   4.655   0.882   2.739
15189SOL    HW247575   4.578   1.007   2.775
15190SOL     OW47576   4.820   1.000   1.967
15190SOL    HW147577   4.788   1.057   1.894
15190SOL    HW247578   4.873   0.935   1.918
15191SOL     OW47579   5.604   1.556   2.696
15191SOL    HW147580   5.513   1.576   2.669
15191SOL    HW247581   5.590   1.493   2.768
15192SOL     OW47582   3.963   1.312   3.726
15192SOL    HW147583   3.880   1.266   3.715
15192SOL    HW247584   3.963   1.327   3.823
15193SOL     OW47585   3.809   1.257   2.532
15193SOL    HW147586   3.854   1.215   2.606
15193SOL    HW247587   3.869   1.236   2.458
15194SOL     OW47588   4.396   1.404   3.468
15194SOL    HW147589   4.333   1.346   3.513
15194SOL    HW247590   4.388   1.486   3.519
15195SOL     OW47591   5.549   0.194   3.079
15195SOL    HW147592   5.526   0.099   3.086
15195SOL    HW247593   5.563   0.202   2.984
15196SOL     OW47594   4.133   0.416   2.366
15196SOL    HW147595   4.174   0.342   2.318
15196SOL    HW247596   4.104   0.375   2.449
15197SOL     OW47597   5.451   1.493   2.950
15197SOL    HW147598   5.367   1.481   2.902
15197SOL    HW247599   5.437   1.432   3.024
15198SOL     OW47600   4.043   0.543   3.147
15198SOL    HW147601   4.114   0.505   3.201
15198SOL    HW247602   4.072   0.528   3.055
15199SOL     OW47603   4.547   1.593   2.534
15199SOL    HW147604   4.536   1.610   2.439
15199SOL    HW247605   4.466   1.543   2.555
15200SOL     OW47606   5.162   0.248   2.947
15200SOL    HW147607   5.181   0.164   2.990
15200SOL    HW247608   5.117   0.299   3.018
15201SOL     OW47609   4.711   0.011   3.021
15201SOL    HW147610   4.672  11.023   3.016
15201SOL    HW247611   4.807  11.090   3.013
15202SOL     OW47612   4.510   1.342   2.174
15202SOL    HW147613   4.484   1.249   2.170
15202SOL    HW247614   4.584   1.340   2.237
15203SOL     OW47615   4.323   1.563   3.132
15203SOL    HW147616   4.319   1.647   3.180
15203SOL    HW247617   4.418   1.558   3.112
15204SOL     OW47618   5.039   0.069   2.032
15204SOL    HW147619   5.042  11.090   1.979
15204SOL    HW247620   4.951   0.062   2.074
15205SOL     OW47621   5.012   0.457   2.528
15205SOL    HW147622   4.956   0.537   2.520
15205SOL    HW247623   4.999   0.432   2.621
15206SOL     OW47624   5.350   0.219   2.729
15206SOL    HW147625   5.280   0.231   2.795
15206SOL    HW247626   5.342   0.304   2.681
15207SOL     OW47627   3.762   1.073   2.189
15207SOL    HW147628   3.857   1.078   2.170
15207SOL    HW247629   3.751   0.976   2.193
15208SOL     OW47630   4.594   1.645   2.195
15208SOL    HW147631   4.520   1.626   2.135
15208SOL    HW247632   4.568   1.727   2.241
15209SOL     OW47633   3.962   0.631   3.857
15209SOL    HW147634   3.870   0.624   3.885
15209SOL    HW247635   3.958   0.618   3.762
15210SOL     OW47636   3.936   0.299   4.718
15210SOL    HW147637   3.957   0.288   4.812
15210SOL    HW247638   3.870   0.228   4.703
15211SOL     OW47639   3.728   0.403   4.366
15211SOL    HW147640   3.649   0.428   4.417
15211SOL    HW247641   3.694   0.334   4.308
15212SOL     OW47642   4.296   1.291   4.924
15212SOL    HW147643   4.210   1.284   4.881
15212SOL    HW247644   4.300   1.386   4.948
15213SOL     OW47645   4.849   0.694   4.429
15213SOL    HW147646   4.886   0.783   4.415
15213SOL    HW247647   4.820   0.700   4.522
15214SOL     OW47648   5.503   0.601   3.949
15214SOL    HW147649   5.481   0.589   3.855
15214SOL    HW247650   5.458   0.525   3.988
15215SOL     OW47651   4.457   1.169   4.745
15215SOL    HW147652   4.400   1.215   4.810
15215SOL    HW247653   4.504   1.245   4.706
15216SOL     OW47654   4.606   0.760   5.525
15216SOL    HW147655   4.582   0.817   5.600
15216SOL    HW247656   4.630   0.825   5.456
15217SOL     OW47657   4.411   1.034   4.381
15217SOL    HW147658   4.479   1.010   4.447
15217SOL    HW247659   4.346   1.082   4.436
15218SOL     OW47660   4.425   1.161   5.525
15218SOL    HW147661   4.468   1.245   5.552
15218SOL    HW247662   4.336   1.191   5.498
15219SOL     OW47663   4.046   1.421   4.783
15219SOL    HW147664   3.969   1.382   4.738
15219SOL    HW247665   4.091   1.473   4.715
15220SOL     OW47666   5.198   1.499   5.093
15220SOL    HW147667   5.249   1.583   5.101
15220SOL    HW247668   5.131   1.509   5.162
15221SOL     OW47669   4.174   0.410   5.217
15221SOL    HW147670   4.249   0.348   5.206
15221SOL    HW247671   4.098   0.352   5.222
15222SOL     OW47672   5.328   0.454   4.457
15222SOL    HW147673   5.275   0.484   4.382
15222SOL    HW247674   5.312   0.523   4.522
15223SOL     OW47675   3.946   1.711   4.200
15223SOL    HW147676   3.972   1.790   4.253
15223SOL    HW247677   4.007   1.717   4.126
15224SOL     OW47678   4.845   1.341   5.378
15224SOL    HW147679   4.885   1.347   5.465
15224SOL    HW247680   4.802   1.254   5.384
15225SOL     OW47681   3.976   1.437   4.255
15225SOL    HW147682   3.968   1.534   4.259
15225SOL    HW247683   3.906   1.408   4.315
15226SOL     OW47684   3.985   1.092   4.624
15226SOL    HW147685   3.989   1.019   4.687
15226SOL    HW247686   3.930   1.158   4.673
15227SOL     OW47687   4.316   1.802   5.125
15227SOL    HW147688   4.250   1.772   5.190
15227SOL    HW247689   4.344   1.889   5.159
15228SOL     OW47690   4.300   0.990   3.834
15228SOL    HW147691   4.355   1.041   3.771
15228SOL    HW247692   4.339   1.019   3.919
15229SOL     OW47693   5.342   0.096   5.197
15229SOL    HW147694   5.351   0.156   5.122
15229SOL    HW247695   5.296   0.153   5.262
15230SOL     OW47696   3.833   0.671   4.296
15230SOL    HW147697   3.812   0.581   4.326
15230SOL    HW247698   3.830   0.722   4.379
15231SOL     OW47699   5.578   1.742   4.065
15231SOL    HW147700   5.647   1.724   4.132
15231SOL    HW247701   5.593   1.836   4.047
15232SOL     OW47702   3.760   1.590   3.833
15232SOL    HW147703   3.754   1.496   3.856
15232SOL    HW247704   3.736   1.634   3.917
15233SOL     OW47705   5.418   0.909   4.351
15233SOL    HW147706   5.497   0.882   4.304
15233SOL    HW247707   5.379   0.973   4.289
15234SOL     OW47708   5.373   1.117   4.170
15234SOL    HW147709   5.463   1.118   4.134
15234SOL    HW247710   5.378   1.185   4.241
15235SOL     OW47711   3.848   0.740   5.304
15235SOL    HW147712   3.939   0.774   5.301
15235SOL    HW247713   3.801   0.819   5.335
15236SOL     OW47714   4.334   1.407   4.485
15236SOL    HW147715   4.292   1.319   4.498
15236SOL    HW247716   4.319   1.419   4.390
15237SOL     OW47717   5.006   1.226   5.148
15237SOL    HW147718   5.034   1.157   5.085
15237SOL    HW247719   5.064   1.211   5.225
15238SOL     OW47720   4.550   0.007   4.247
15238SOL    HW147721   4.580   0.098   4.230
15238SOL    HW247722   4.455   0.012   4.223
15239SOL     OW47723   3.902   0.979   4.986
15239SOL    HW147724   3.992   0.944   4.973
15239SOL    HW247725   3.847   0.916   4.938
15240SOL     OW47726   5.256   0.968   3.913
15240SOL    HW147727   5.175   0.921   3.944
15240SOL    HW247728   5.296   0.995   3.997
15241SOL     OW47729   4.916   1.789   5.349
15241SOL    HW147730   4.921   1.854   5.278
15241SOL    HW247731   4.931   1.705   5.300
15242SOL     OW47732   4.047   0.253   5.555
15242SOL    HW147733   4.089   0.338   5.574
15242SOL    HW247734   3.952   0.273   5.570
15243SOL     OW47735   5.208   1.404   4.743
15243SOL    HW147736   5.123   1.438   4.776
15243SOL    HW247737   5.182   1.362   4.660
15244SOL     OW47738   5.382   1.738   4.308
15244SOL    HW147739   5.365   1.695   4.223
15244SOL    HW247740   5.338   1.674   4.369
15245SOL     OW47741   4.316   0.714   3.985
15245SOL    HW147742   4.320   0.800   3.941
15245SOL    HW247743   4.246   0.726   4.052
15246SOL     OW47744   4.990   0.367   4.639
15246SOL    HW147745   4.904   0.324   4.657
15246SOL    HW247746   5.048   0.319   4.701
15247SOL     OW47747   5.303   1.644   4.032
15247SOL    HW147748   5.398   1.664   4.035
15247SOL    HW247749   5.290   1.638   3.935
15248SOL     OW47750   4.541   0.611   5.176
15248SOL    HW147751   4.508   0.586   5.265
15248SOL    HW247752   4.493   0.547   5.119
15249SOL     OW47753   5.124   0.490   5.400
15249SOL    HW147754   5.128   0.532   5.488
15249SOL    HW247755   5.182   0.414   5.411
15250SOL     OW47756   4.689   0.917   5.313
15250SOL    HW147757   4.748   0.845   5.280
15250SOL    HW247758   4.640   0.937   5.231
15251SOL     OW47759   4.734   0.380   4.961
15251SOL    HW147760   4.652   0.411   4.999
15251SOL    HW247761   4.706   0.344   4.875
15252SOL     OW47762   4.778   0.705   4.153
15252SOL    HW147763   4.797   0.701   4.248
15252SOL    HW247764   4.693   0.656   4.146
15253SOL     OW47765   3.830   0.831   4.514
15253SOL    HW147766   3.901   0.833   4.581
15253SOL    HW247767   3.785   0.916   4.530
15254SOL     OW47768   3.826   1.832   5.283
15254SOL    HW147769   3.835   1.819   5.379
15254SOL    HW247770   3.731   1.846   5.272
15255SOL     OW47771   4.599   0.347   3.949
15255SOL    HW147772   4.650   0.402   3.888
15255SOL    HW247773   4.579   0.270   3.895
15256SOL     OW47774   5.456   0.558   5.554
15256SOL    HW147775   5.411   0.635   5.515
15256SOL    HW247776   5.472   0.504   5.474
15257SOL     OW47777   5.089   1.145   4.283
15257SOL    HW147778   5.171   1.143   4.232
15257SOL    HW247779   5.040   1.215   4.236
15258SOL     OW47780   4.262   0.199   4.601
15258SOL    HW147781   4.284   0.210   4.695
15258SOL    HW247782   4.273   0.287   4.564
15259SOL     OW47783   4.704   1.437   4.221
15259SOL    HW147784   4.671   1.502   4.156
15259SOL    HW247785   4.727   1.492   4.297
15260SOL     OW47786   4.062   1.806   4.574
15260SOL    HW147787   4.109   1.721   4.589
15260SOL    HW247788   4.130   1.870   4.601
15261SOL     OW47789   5.540   1.035   4.581
15261SOL    HW147790   5.478   1.021   4.507
15261SOL    HW247791   5.481   1.037   4.657
15262SOL     OW47792   4.949   1.551   5.219
15262SOL    HW147793   4.919   1.482   5.281
15262SOL    HW247794   4.910   1.520   5.136
15263SOL     OW47795   4.029   0.957   3.984
15263SOL    HW147796   4.113   0.968   3.936
15263SOL    HW247797   4.005   0.865   3.962
15264SOL     OW47798   5.208   0.744   4.436
15264SOL    HW147799   5.200   0.709   4.527
15264SOL    HW247800   5.280   0.808   4.442
15265SOL     OW47801   4.182   1.274   5.445
15265SOL    HW147802   4.142   1.278   5.355
15265SOL    HW247803   4.102   1.282   5.500
15266SOL     OW47804   4.810   1.779   3.970
15266SOL    HW147805   4.761   1.715   4.024
15266SOL    HW247806   4.828   1.728   3.890
15267SOL     OW47807   3.900   0.307   5.228
15267SOL    HW147808   3.821   0.353   5.258
15267SOL    HW247809   3.879   0.215   5.254
15268SOL     OW47810   5.352   1.365   3.824
15268SOL    HW147811   5.311   1.448   3.796
15268SOL    HW247812   5.289   1.298   3.789
15269SOL     OW47813   4.179   1.738   4.037
15269SOL    HW147814   4.224   1.780   4.113
15269SOL    HW247815   4.252   1.707   3.983
15270SOL     OW47816   5.124   0.083   4.173
15270SOL    HW147817   5.126   0.069   4.077
15270SOL    HW247818   5.216   0.102   4.196
15271SOL     OW47819   3.974   1.796   4.948
15271SOL    HW147820   4.026   1.729   4.994
15271SOL    HW247821   3.953   1.753   4.864
15272SOL     OW47822   4.689   1.699   4.615
15272SOL    HW147823   4.774   1.653   4.614
15272SOL    HW247824   4.640   1.650   4.545
15273SOL     OW47825   4.072   0.685   4.161
15273SOL    HW147826   4.098   0.593   4.179
15273SOL    HW247827   3.984   0.688   4.203
15274SOL     OW47828   5.257   0.224   5.422
15274SOL    HW147829   5.262   0.245   5.518
15274SOL    HW247830   5.194   0.150   5.428
15275SOL     OW47831   4.364   0.122   3.817
15275SOL    HW147832   4.382   0.035   3.855
15275SOL    HW247833   4.311   0.099   3.738
15276SOL     OW47834   4.495   0.287   5.467
15276SOL    HW147835   4.579   0.236   5.468
15276SOL    HW247836   4.448   0.247   5.543
15277SOL     OW47837   4.605   1.544   4.921
15277SOL    HW147838   4.606   1.512   4.829
15277SOL    HW247839   4.665   1.482   4.966
15278SOL     OW47840   5.044   0.589   5.167
15278SOL    HW147841   5.082   0.555   5.251
15278SOL    HW247842   5.102   0.666   5.149
15279SOL     OW47843   4.557   1.406   4.666
15279SOL    HW147844   4.644   1.398   4.622
15279SOL    HW247845   4.497   1.415   4.590
15280SOL     OW47846   4.668   0.529   4.636
15280SOL    HW147847   4.639   0.509   4.544
15280SOL    HW247848   4.703   0.442   4.663
15281SOL     OW47849   4.267   0.028   4.226
15281SOL    HW147850   4.182   0.029   4.274
15281SOL    HW247851   4.258   0.109   4.172
15282SOL     OW47852   5.173   1.176   3.757
15282SOL    HW147853   5.197   1.101   3.814
15282SOL    HW247854   5.090   1.207   3.795
15283SOL     OW47855   4.027   0.045   3.943
15283SOL    HW147856   4.085   0.123   3.943
15283SOL    HW247857   4.087  11.076   3.972
15284SOL     OW47858   4.653   0.256   4.209
15284SOL    HW147859   4.629   0.297   4.124
15284SOL    HW247860   4.750   0.257   4.204
15285SOL     OW47861   4.813   0.718   5.190
15285SOL    HW147862   4.750   0.646   5.200
15285SOL    HW247863   4.899   0.671   5.187
15286SOL     OW47864   4.946   1.592   4.529
15286SOL    HW147865   4.944   1.634   4.442
15286SOL    HW247866   5.042   1.570   4.533
15287SOL     OW47867   4.194   1.176   4.472
15287SOL    HW147868   4.120   1.141   4.526
15287SOL    HW247869   4.161   1.155   4.381
15288SOL     OW47870   4.981   1.811   4.299
15288SOL    HW147871   5.037   1.874   4.250
15288SOL    HW247872   4.971   1.855   4.383
15289SOL     OW47873   4.778   0.551   3.729
15289SOL    HW147874   4.729   0.633   3.715
15289SOL    HW247875   4.848   0.578   3.790
15290SOL     OW47876   3.786   0.566   5.113
15290SOL    HW147877   3.882   0.554   5.099
15290SOL    HW247878   3.786   0.636   5.182
15291SOL     OW47879   4.285   0.218   4.899
15291SOL    HW147880   4.324   0.167   4.972
15291SOL    HW247881   4.192   0.228   4.928
15292SOL     OW47882   4.603   0.448   4.393
15292SOL    HW147883   4.557   0.501   4.327
15292SOL    HW247884   4.624   0.367   4.342
15293SOL     OW47885   4.707   0.013   4.490
15293SOL    HW147886   4.650   0.043   4.417
15293SOL    HW247887   4.667  11.029   4.511
15294SOL     OW47888   5.137   1.167   4.606
15294SOL    HW147889   5.061   1.108   4.609
15294SOL    HW247890   5.148   1.181   4.511
15295SOL     OW47891   5.210   0.601   4.685
15295SOL    HW147892   5.149   0.527   4.696
15295SOL    HW247893   5.267   0.595   4.765
15296SOL     OW47894   5.570   0.808   4.102
15296SOL    HW147895   5.623   0.763   4.171
15296SOL    HW247896   5.554   0.735   4.039
15297SOL     OW47897   4.221   1.417   3.853
15297SOL    HW147898   4.139   1.405   3.903
15297SOL    HW247899   4.214   1.350   3.783
15298SOL     OW47900   5.394   1.276   4.390
15298SOL    HW147901   5.488   1.297   4.397
15298SOL    HW247902   5.349   1.359   4.418
15299SOL     OW47903   5.124   0.600   3.783
15299SOL    HW147904   5.082   0.572   3.866
15299SOL    HW247905   5.213   0.563   3.792
15300SOL     OW47906   4.235   0.245   4.034
15300SOL    HW147907   4.297   0.215   3.966
15300SOL    HW247908   4.209   0.332   3.997
15301SOL     OW47909   5.458   1.234   5.300
15301SOL    HW147910   5.546   1.192   5.296
15301SOL    HW247911   5.482   1.327   5.312
15302SOL     OW47912   4.775   1.370   5.077
15302SOL    HW147913   4.698   1.330   5.120
15302SOL    HW247914   4.849   1.320   5.117
15303SOL     OW47915   5.346   1.616   5.365
15303SOL    HW147916   5.338   1.650   5.274
15303SOL    HW247917   5.425   1.560   5.358
15304SOL     OW47918   4.847   1.240   4.825
15304SOL    HW147919   4.782   1.267   4.890
15304SOL    HW247920   4.816   1.281   4.743
15305SOL     OW47921   5.327   1.092   4.793
15305SOL    HW147922   5.332   1.157   4.866
15305SOL    HW247923   5.268   1.140   4.731
15306SOL     OW47924   4.622   0.106   5.120
15306SOL    HW147925   4.652   0.078   5.031
15306SOL    HW247926   4.706   0.129   5.161
15307SOL     OW47927   4.726   1.121   5.475
15307SOL    HW147928   4.635   1.154   5.487
15307SOL    HW247929   4.715   1.047   5.412
15308SOL     OW47930   4.432   1.058   4.067
15308SOL    HW147931   4.424   1.048   4.163
15308SOL    HW247932   4.510   1.001   4.048
15309SOL     OW47933   4.142   0.811   4.988
15309SOL    HW147934   4.215   0.806   5.052
15309SOL    HW247935   4.100   0.723   4.997
15310SOL     OW47936   5.010   0.407   4.974
15310SOL    HW147937   5.019   0.470   5.049
15310SOL    HW247938   4.913   0.407   4.959
15311SOL     OW47939   3.789   1.564   5.066
15311SOL    HW147940   3.782   1.657   5.040
15311SOL    HW247941   3.885   1.547   5.060
15312SOL     OW47942   4.091   1.112   4.228
15312SOL    HW147943   4.109   1.176   4.159
15312SOL    HW247944   4.061   1.036   4.177
15313SOL     OW47945   4.253   0.548   4.552
15313SOL    HW147946   4.285   0.611   4.485
15313SOL    HW247947   4.319   0.556   4.624
15314SOL     OW47948   4.942   1.319   4.115
15314SOL    HW147949   4.985   1.405   4.137
15314SOL    HW247950   4.855   1.332   4.156
15315SOL     OW47951   4.997   1.470   4.903
15315SOL    HW147952   5.068   1.460   4.969
15315SOL    HW247953   4.957   1.382   4.901
15316SOL     OW47954   5.305   0.614   4.193
15316SOL    HW147955   5.258   0.663   4.263
15316SOL    HW247956   5.333   0.684   4.134
15317SOL     OW47957   4.059   1.501   5.032
15317SOL    HW147958   4.053   1.467   4.940
15317SOL    HW247959   4.152   1.529   5.034
15318SOL     OW47960   4.155   0.720   5.340
15318SOL    HW147961   4.217   0.772   5.285
15318SOL    HW247962   4.197   0.633   5.336
15319SOL     OW47963   5.352   0.770   5.408
15319SOL    HW147964   5.263   0.807   5.410
15319SOL    HW247965   5.392   0.817   5.332
15320SOL     OW47966   4.723   0.138   5.487
15320SOL    HW147967   4.786   0.211   5.487
15320SOL    HW247968   4.778   0.066   5.452
15321SOL     OW47969   4.214   0.058   5.468
15321SOL    HW147970   4.152   0.000   5.421
15321SOL    HW247971   4.155   0.132   5.495
15322SOL     OW47972   4.308   0.884   4.774
15322SOL    HW147973   4.341   0.975   4.773
15322SOL    HW247974   4.250   0.882   4.852
15323SOL     OW47975   5.080   0.856   4.767
15323SOL    HW147976   4.999   0.824   4.724
15323SOL    HW247977   5.135   0.777   4.764
15324SOL     OW47978   4.955   0.519   3.991
15324SOL    HW147979   4.966   0.443   4.051
15324SOL    HW247980   4.893   0.574   4.041
15325SOL     OW47981   4.026   0.228   4.989
15325SOL    HW147982   3.984   0.262   5.070
15325SOL    HW247983   3.983   0.143   4.978
15326SOL     OW47984   3.768   1.296   5.006
15326SOL    HW147985   3.787   1.241   5.085
15326SOL    HW247986   3.766   1.386   5.041
15327SOL     OW47987   4.427   0.607   4.748
15327SOL    HW147988   4.519   0.595   4.716
15327SOL    HW247989   4.416   0.704   4.751
15328SOL     OW47990   5.484   0.954   5.574
15328SOL    HW147991   5.437   0.895   5.513
15328SOL    HW247992   5.422   0.958   5.648
15329SOL     OW47993   4.019   0.037   4.344
15329SOL    HW147994   3.999   0.132   4.354
15329SOL    HW247995   4.028   0.012   4.438
15330SOL     OW47996   5.315   0.385   4.055
15330SOL    HW147997   5.348   0.318   4.116
15330SOL    HW247998   5.306   0.463   4.113
15331SOL     OW47999   4.807   0.751   4.696
15331SOL    HW148000   4.776   0.772   4.786
15331SOL    HW248001   4.767   0.663   4.685
15332SOL     OW48002   4.704   1.565   5.427
15332SOL    HW148003   4.696   1.623   5.349
15332SOL    HW248004   4.726   1.479   5.386
15333SOL     OW48005   5.577   1.490   5.330
15333SOL    HW148006   5.594   1.515   5.237
15333SOL    HW248007   5.664   1.507   5.370
15334SOL     OW48008   4.083   0.895   5.522
15334SOL    HW148009   4.168   0.909   5.567
15334SOL    HW248010   4.105   0.820   5.462
15335SOL     OW48011   5.227   0.257   3.835
15335SOL    HW148012   5.153   0.205   3.871
15335SOL    HW248013   5.260   0.306   3.913
15336SOL     OW48014   4.995   0.828   3.736
15336SOL    HW148015   5.050   0.748   3.746
15336SOL    HW248016   5.033   0.866   3.654
15337SOL     OW48017   4.801   1.360   4.574
15337SOL    HW148018   4.820   1.287   4.513
15337SOL    HW248019   4.869   1.426   4.554
15338SOL     OW48020   4.013   0.827   4.723
15338SOL    HW148021   4.108   0.842   4.711
15338SOL    HW248022   4.011   0.732   4.741
15339SOL     OW48023   4.054   0.543   4.725
15339SOL    HW148024   4.018   0.455   4.705
15339SOL    HW248025   4.122   0.551   4.655
15340SOL     OW48026   4.881   0.375   5.406
15340SOL    HW148027   4.833   0.428   5.472
15340SOL    HW248028   4.971   0.413   5.413
15341SOL     OW48029   4.903   0.219   5.184
15341SOL    HW148030   4.893   0.281   5.259
15341SOL    HW248031   4.922   0.279   5.110
15342SOL     OW48032   3.729   1.316   3.908
15342SOL    HW148033   3.634   1.327   3.881
15342SOL    HW248034   3.727   1.225   3.944
15343SOL     OW48035   3.814   1.784   4.665
15343SOL    HW148036   3.790   1.711   4.605
15343SOL    HW248037   3.906   1.803   4.634
15344SOL     OW48038   4.216   1.586   4.648
15344SOL    HW148039   4.282   1.656   4.670
15344SOL    HW248040   4.271   1.524   4.597
15345SOL     OW48041   4.694   0.758   4.942
15345SOL    HW148042   4.747   0.740   5.021
15345SOL    HW248043   4.607   0.777   4.979
15346SOL     OW48044   3.756   0.526   4.831
15346SOL    HW148045   3.833   0.508   4.775
15346SOL    HW248046   3.796   0.536   4.918
15347SOL     OW48047   3.933   0.518   5.443
15347SOL    HW148048   3.978   0.466   5.375
15347SOL    HW248049   3.902   0.596   5.394
15348SOL     OW48050   5.108   0.915   5.372
15348SOL    HW148051   5.137   1.008   5.368
15348SOL    HW248052   5.102   0.892   5.277
15349SOL     OW48053   4.539   0.585   4.098
15349SOL    HW148054   4.545   0.503   4.046
15349SOL    HW248055   4.463   0.631   4.058
15350SOL     OW48056   5.373   0.604   4.912
15350SOL    HW148057   5.353   0.530   4.970
15350SOL    HW248058   5.464   0.583   4.884
15351SOL     OW48059   3.974   1.539   5.442
15351SOL    HW148060   3.961   1.604   5.513
15351SOL    HW248061   3.980   1.455   5.492
15352SOL     OW48062   4.417   0.468   4.982
15352SOL    HW148063   4.372   0.387   4.953
15352SOL    HW248064   4.407   0.525   4.904
15353SOL     OW48065   4.651   1.705   5.200
15353SOL    HW148066   4.644   1.663   5.113
15353SOL    HW248067   4.645   1.800   5.179
15354SOL     OW48068   4.174   0.478   3.919
15354SOL    HW148069   4.236   0.552   3.930
15354SOL    HW248070   4.089   0.526   3.914
15355SOL     OW48071   3.835   1.127   5.197
15355SOL    HW148072   3.851   1.073   5.277
15355SOL    HW248073   3.855   1.064   5.124
15356SOL     OW48074   5.035   1.052   4.948
15356SOL    HW148075   5.059   0.990   4.876
15356SOL    HW248076   4.980   1.118   4.901
15357SOL     OW48077   5.031   0.850   4.006
15357SOL    HW148078   4.947   0.835   4.053
15357SOL    HW248079   5.006   0.843   3.912
15358SOL     OW48080   5.485   1.750   4.863
15358SOL    HW148081   5.551   1.773   4.794
15358SOL    HW248082   5.470   1.655   4.844
15359SOL     OW48083   4.966   1.731   4.846
15359SOL    HW148084   5.051   1.752   4.804
15359SOL    HW248085   4.971   1.634   4.859
15360SOL     OW48086   3.824   1.254   4.755
15360SOL    HW148087   3.798   1.268   4.849
15360SOL    HW248088   3.741   1.224   4.715
15361SOL     OW48089   4.416   1.650   5.458
15361SOL    HW148090   4.371   1.736   5.451
15361SOL    HW248091   4.501   1.667   5.414
15362SOL     OW48092   5.411   0.110   4.222
15362SOL    HW148093   5.488   0.136   4.170
15362SOL    HW248094   5.448   0.049   4.287
15363SOL     OW48095   5.057   1.560   4.141
15363SOL    HW148096   5.151   1.568   4.121
15363SOL    HW248097   5.043   1.635   4.200
15364SOL     OW48098   3.872   1.802   5.551
15364SOL    HW148099   3.830   1.729   5.600
15364SOL    HW248100   3.920   1.847   5.622
15365SOL     OW48101   4.988   0.919   4.403
15365SOL    HW148102   5.065   0.859   4.409
15365SOL    HW248103   5.027   0.994   4.353
15366SOL     OW48104   4.512   1.251   5.156
15366SOL    HW148105   4.490   1.304   5.236
15366SOL    HW248106   4.435   1.269   5.100
15367SOL     OW48107   4.387   1.619   3.880
15367SOL    HW148108   4.401   1.627   3.783
15367SOL    HW248109   4.332   1.538   3.883
15368SOL     OW48110   5.348   1.722   5.111
15368SOL    HW148111   5.394   1.737   5.026
15368SOL    HW248112   5.336   1.814   5.144
15369SOL     OW48113   5.578   0.119   4.676
15369SOL    HW148114   5.613   0.064   4.605
15369SOL    HW248115   5.498   0.159   4.635
15370SOL     OW48116   3.968   0.299   4.427
15370SOL    HW148117   3.882   0.343   4.408
15370SOL    HW248118   3.972   0.305   4.524
15371SOL     OW48119   4.909   1.632   3.751
15371SOL    HW148120   4.918   1.538   3.772
15371SOL    HW248121   4.852   1.631   3.672
15372SOL     OW48122   4.547   0.996   5.094
15372SOL    HW148123   4.591   1.015   5.010
15372SOL    HW248124   4.534   1.086   5.129
15373SOL     OW48125   4.635   0.901   3.994
15373SOL    HW148126   4.710   0.937   3.943
15373SOL    HW248127   4.676   0.831   4.047
15374SOL     OW48128   5.277   1.628   3.759
15374SOL    HW148129   5.181   1.641   3.753
15374SOL    HW248130   5.303   1.629   3.664
15375SOL     OW48131   4.064   1.280   5.209
15375SOL    HW148132   4.055   1.350   5.142
15375SOL    HW248133   3.983   1.229   5.199
15376SOL     OW48134   5.332   1.289   4.998
15376SOL    HW148135   5.358   1.276   5.089
15376SOL    HW248136   5.269   1.363   5.006
15377SOL     OW48137   4.787   1.114   4.449
15377SOL    HW148138   4.709   1.065   4.480
15377SOL    HW248139   4.847   1.043   4.422
15378SOL     OW48140   4.755   0.246   4.699
15378SOL    HW148141   4.739   0.192   4.620
15378SOL    HW248142   4.747   0.178   4.768
15379SOL     OW48143   4.341   1.485   4.217
15379SOL    HW148144   4.390   1.447   4.142
15379SOL    HW248145   4.262   1.520   4.176
15380SOL     OW48146   5.433   0.375   5.106
15380SOL    HW148147   5.489   0.454   5.103
15380SOL    HW248148   5.484   0.315   5.048
15381SOL     OW48149   3.976   1.384   3.995
15381SOL    HW148150   3.880   1.369   3.984
15381SOL    HW248151   3.983   1.405   4.090
15382SOL     OW48152   3.862   0.998   5.426
15382SOL    HW148153   3.788   0.991   5.491
15382SOL    HW248154   3.940   0.966   5.476
15383SOL     OW48155   4.392   0.218   5.210
15383SOL    HW148156   4.473   0.172   5.178
15383SOL    HW248157   4.421   0.247   5.298
15384SOL     OW48158   3.794   0.356   3.752
15384SOL    HW148159   3.702   0.371   3.728
15384SOL    HW248160   3.839   0.423   3.698
15385SOL     OW48161   5.168   0.850   5.115
15385SOL    HW148162   5.128   0.909   5.049
15385SOL    HW248163   5.262   0.865   5.098
15386SOL     OW48164   3.765   0.172   4.046
15386SOL    HW148165   3.764   0.237   3.975
15386SOL    HW248166   3.852   0.130   4.034
15387SOL     OW48167   4.927   1.352   3.840
15387SOL    HW148168   4.848   1.297   3.850
15387SOL    HW248169   4.955   1.362   3.933
15388SOL     OW48170   4.348   0.801   5.160
15388SOL    HW148171   4.401   0.882   5.153
15388SOL    HW248172   4.419   0.734   5.170
15389SOL     OW48173   5.226   1.815   4.709
15389SOL    HW148174   5.252   1.801   4.617
15389SOL    HW248175   5.293   1.764   4.756
15390SOL     OW48176   4.419   0.583   5.415
15390SOL    HW148177   4.480   0.637   5.469
15390SOL    HW248178   4.418   0.498   5.462
15391SOL     OW48179   5.195   1.179   5.349
15391SOL    HW148180   5.187   1.183   5.446
15391SOL    HW248181   5.289   1.200   5.336
15392SOL     OW48182   4.092   1.738   5.291
15392SOL    HW148183   4.008   1.785   5.274
15392SOL    HW248184   4.059   1.651   5.321
15393SOL     OW48185   5.399   0.892   4.959
15393SOL    HW148186   5.384   0.807   4.914
15393SOL    HW248187   5.372   0.958   4.892
15394SOL     OW48188   4.951   0.307   4.176
15394SOL    HW148189   5.005   0.226   4.176
15394SOL    HW248190   4.981   0.353   4.257
15395SOL     OW48191   4.314   0.752   4.368
15395SOL    HW148192   4.357   0.839   4.370
15395SOL    HW248193   4.235   0.768   4.317
15396SOL     OW48194   5.494   0.370   5.362
15396SOL    HW148195   5.461   0.373   5.270
15396SOL    HW248196   5.424   0.315   5.403
15397SOL     OW48197   5.462   0.933   5.222
15397SOL    HW148198   5.463   1.029   5.213
15397SOL    HW248199   5.466   0.905   5.129
15398SOL     OW48200   4.581   1.366   3.747
15398SOL    HW148201   4.566   1.379   3.841
15398SOL    HW248202   4.619   1.450   3.717
15399SOL     OW48203   4.371   1.808   4.659
15399SOL    HW148204   4.366   1.904   4.640
15399SOL    HW248205   4.466   1.791   4.656
15400SOL     OW48206   4.599   0.950   4.563
15400SOL    HW148207   4.651   0.878   4.602
15400SOL    HW248208   4.582   1.007   4.639
15401SOL     OW48209   4.822   1.003   3.824
15401SOL    HW148210   4.794   1.058   3.749
15401SOL    HW248211   4.879   0.937   3.780
15402SOL     OW48212   5.594   1.558   4.551
15402SOL    HW148213   5.499   1.564   4.532
15402SOL    HW248214   5.597   1.486   4.615
15403SOL     OW48215   3.964   1.314   5.593
15403SOL    HW148216   3.886   1.260   5.576
15403SOL    HW248217   3.954   1.332   5.688
15404SOL     OW48218   3.815   1.249   4.379
15404SOL    HW148219   3.798   1.189   4.453
15404SOL    HW248220   3.898   1.216   4.345
15405SOL     OW48221   4.401   1.399   5.345
15405SOL    HW148222   4.322   1.351   5.375
15405SOL    HW248223   4.388   1.488   5.385
15406SOL     OW48224   5.548   0.194   4.941
15406SOL    HW148225   5.535   0.101   4.965
15406SOL    HW248226   5.552   0.188   4.844
15407SOL     OW48227   4.128   0.424   4.235
15407SOL    HW148228   4.171   0.350   4.189
15407SOL    HW248229   4.097   0.383   4.318
15408SOL     OW48230   5.450   1.490   4.823
15408SOL    HW148231   5.365   1.458   4.786
15408SOL    HW248232   5.466   1.422   4.890
15409SOL     OW48233   4.048   0.552   5.010
15409SOL    HW148234   4.117   0.508   5.063
15409SOL    HW248235   4.070   0.529   4.918
15410SOL     OW48236   4.545   1.591   4.413
15410SOL    HW148237   4.545   1.619   4.321
15410SOL    HW248238   4.463   1.538   4.418
15411SOL     OW48239   5.150   0.248   4.815
15411SOL    HW148240   5.175   0.172   4.868
15411SOL    HW248241   5.104   0.305   4.881
15412SOL     OW48242   4.722   0.006   4.880
15412SOL    HW148243   4.675  11.024   4.868
15412SOL    HW248244   4.815  11.079   4.869
15413SOL     OW48245   4.511   1.339   4.039
15413SOL    HW148246   4.480   1.248   4.033
15413SOL    HW248247   4.574   1.335   4.112
15414SOL     OW48248   4.324   1.562   4.991
15414SOL    HW148249   4.324   1.648   5.037
15414SOL    HW248250   4.417   1.557   4.963
15415SOL     OW48251   5.041   0.069   3.894
15415SOL    HW148252   5.046  11.089   3.842
15415SOL    HW248253   4.954   0.058   3.938
15416SOL     OW48254   5.003   0.459   4.390
15416SOL    HW148255   4.950   0.541   4.389
15416SOL    HW248256   4.994   0.428   4.482
15417SOL     OW48257   5.345   0.217   4.587
15417SOL    HW148258   5.272   0.228   4.650
15417SOL    HW248259   5.339   0.301   4.538
15418SOL     OW48260   3.767   1.054   4.018
15418SOL    HW148261   3.863   1.047   4.000
15418SOL    HW248262   3.747   0.963   4.048
15419SOL     OW48263   4.597   1.638   4.061
15419SOL    HW148264   4.523   1.629   3.997
15419SOL    HW248265   4.575   1.719   4.111
15420SOL     OW48266   3.964   0.622   5.719
15420SOL    HW148267   3.871   0.616   5.745
15420SOL    HW248268   3.960   0.611   5.622
15421SOL     OW48269   3.936   0.301   6.575
15421SOL    HW148270   3.961   0.289   6.667
15421SOL    HW248271   3.870   0.229   6.562
15422SOL     OW48272   3.726   0.408   6.230
15422SOL    HW148273   3.645   0.437   6.276
15422SOL    HW248274   3.693   0.335   6.176
15423SOL     OW48275   4.297   1.291   6.793
15423SOL    HW148276   4.211   1.289   6.748
15423SOL    HW248277   4.306   1.385   6.815
15424SOL     OW48278   5.253   1.539   6.296
15424SOL    HW148279   5.220   1.509   6.384
15424SOL    HW248280   5.176   1.530   6.237
15425SOL     OW48281   4.845   0.690   6.283
15425SOL    HW148282   4.884   0.778   6.268
15425SOL    HW248283   4.819   0.697   6.376
15426SOL     OW48284   5.501   0.616   5.820
15426SOL    HW148285   5.476   0.592   5.728
15426SOL    HW248286   5.489   0.531   5.866
15427SOL     OW48287   4.466   1.163   6.627
15427SOL    HW148288   4.404   1.212   6.686
15427SOL    HW248289   4.505   1.237   6.577
15428SOL     OW48290   4.597   0.763   7.392
15428SOL    HW148291   4.571   0.821   7.464
15428SOL    HW248292   4.626   0.826   7.323
15429SOL     OW48293   4.409   1.032   6.243
15429SOL    HW148294   4.478   1.010   6.309
15429SOL    HW248295   4.341   1.076   6.297
15430SOL     OW48296   4.421   1.156   7.389
15430SOL    HW148297   4.465   1.240   7.414
15430SOL    HW248298   4.334   1.185   7.357
15431SOL     OW48299   4.047   1.424   6.654
15431SOL    HW148300   3.977   1.380   6.603
15431SOL    HW248301   4.093   1.480   6.589
15432SOL     OW48302   5.199   1.503   6.955
15432SOL    HW148303   5.252   1.584   6.965
15432SOL    HW248304   5.131   1.514   7.024
15433SOL     OW48305   4.162   0.410   7.084
15433SOL    HW148306   4.236   0.348   7.077
15433SOL    HW248307   4.084   0.352   7.083
15434SOL     OW48308   5.339   0.465   6.326
15434SOL    HW148309   5.292   0.492   6.246
15434SOL    HW248310   5.312   0.534   6.389
15435SOL     OW48311   3.947   1.709   6.065
15435SOL    HW148312   3.980   1.788   6.113
15435SOL    HW248313   4.002   1.710   5.985
15436SOL     OW48314   4.865   1.359   7.261
15436SOL    HW148315   4.903   1.355   7.350
15436SOL    HW248316   4.822   1.271   7.256
15437SOL     OW48317   3.982   1.439   6.120
15437SOL    HW148318   3.974   1.536   6.121
15437SOL    HW248319   3.910   1.411   6.179
15438SOL     OW48320   3.991   1.092   6.490
15438SOL    HW148321   3.988   1.015   6.549
15438SOL    HW248322   3.936   1.156   6.538
15439SOL     OW48323   4.319   1.804   6.988
15439SOL    HW148324   4.251   1.772   7.051
15439SOL    HW248325   4.345   1.890   7.026
15440SOL     OW48326   4.304   0.986   5.695
15440SOL    HW148327   4.352   1.039   5.628
15440SOL    HW248328   4.343   1.019   5.777
15441SOL     OW48329   5.332   0.099   7.076
15441SOL    HW148330   5.343   0.141   6.991
15441SOL    HW248331   5.297   0.171   7.130
15442SOL     OW48332   3.853   0.667   6.160
15442SOL    HW148333   3.823   0.578   6.185
15442SOL    HW248334   3.840   0.718   6.242
15443SOL     OW48335   5.582   1.749   5.914
15443SOL    HW148336   5.644   1.733   5.988
15443SOL    HW248337   5.598   1.843   5.896
15444SOL     OW48338   3.787   1.599   5.704
15444SOL    HW148339   3.770   1.506   5.722
15444SOL    HW248340   3.752   1.643   5.783
15445SOL     OW48341   5.404   0.938   6.250
15445SOL    HW148342   5.473   0.888   6.204
15445SOL    HW248343   5.367   0.990   6.177
15446SOL     OW48344   5.369   1.127   6.032
15446SOL    HW148345   5.461   1.121   6.001
15446SOL    HW248346   5.375   1.195   6.102
15447SOL     OW48347   3.854   0.739   7.167
15447SOL    HW148348   3.947   0.766   7.171
15447SOL    HW248349   3.811   0.821   7.196
15448SOL     OW48350   4.321   1.407   6.344
15448SOL    HW148351   4.278   1.319   6.356
15448SOL    HW248352   4.309   1.419   6.247
15449SOL     OW48353   5.011   1.230   7.008
15449SOL    HW148354   5.046   1.159   6.951
15449SOL    HW248355   5.064   1.217   7.089
15450SOL     OW48356   4.547   0.005   6.111
15450SOL    HW148357   4.584   0.091   6.085
15450SOL    HW248358   4.454   0.013   6.086
15451SOL     OW48359   3.897   0.983   6.841
15451SOL    HW148360   3.985   0.947   6.824
15451SOL    HW248361   3.838   0.918   6.801
15452SOL     OW48362   5.266   0.967   5.765
15452SOL    HW148363   5.190   0.912   5.788
15452SOL    HW248364   5.295   0.997   5.852
15453SOL     OW48365   4.901   1.799   7.206
15453SOL    HW148366   4.911   1.864   7.135
15453SOL    HW248367   4.929   1.717   7.161
15454SOL     OW48368   4.039   0.249   7.400
15454SOL    HW148369   4.073   0.336   7.423
15454SOL    HW248370   3.944   0.258   7.415
15455SOL     OW48371   5.198   1.430   6.549
15455SOL    HW148372   5.132   1.450   6.618
15455SOL    HW248373   5.173   1.339   6.522
15456SOL     OW48374   5.389   1.733   6.185
15456SOL    HW148375   5.367   1.690   6.101
15456SOL    HW248376   5.355   1.665   6.247
15457SOL     OW48377   4.321   0.709   5.851
15457SOL    HW148378   4.318   0.795   5.806
15457SOL    HW248379   4.252   0.718   5.919
15458SOL     OW48380   4.990   0.384   6.523
15458SOL    HW148381   4.904   0.339   6.532
15458SOL    HW248382   5.050   0.323   6.570
15459SOL     OW48383   5.301   1.646   5.900
15459SOL    HW148384   5.376   1.706   5.909
15459SOL    HW248385   5.293   1.641   5.803
15460SOL     OW48386   4.545   0.614   7.027
15460SOL    HW148387   4.518   0.591   7.119
15460SOL    HW248388   4.494   0.548   6.976
15461SOL     OW48389   5.114   0.488   7.257
15461SOL    HW148390   5.116   0.539   7.340
15461SOL    HW248391   5.181   0.420   7.273
15462SOL     OW48392   4.692   0.913   7.181
15462SOL    HW148393   4.750   0.842   7.148
15462SOL    HW248394   4.642   0.933   7.099
15463SOL     OW48395   4.736   0.382   6.828
15463SOL    HW148396   4.658   0.423   6.868
15463SOL    HW248397   4.703   0.343   6.747
15464SOL     OW48398   4.777   0.702   6.009
15464SOL    HW148399   4.793   0.699   6.105
15464SOL    HW248400   4.693   0.651   6.002
15465SOL     OW48401   3.831   0.832   6.373
15465SOL    HW148402   3.902   0.827   6.439
15465SOL    HW248403   3.789   0.916   6.395
15466SOL     OW48404   3.828   1.841   7.150
15466SOL    HW148405   3.838   1.827   7.247
15466SOL    HW248406   3.734   1.824   7.136
15467SOL     OW48407   4.613   0.350   5.810
15467SOL    HW148408   4.658   0.401   5.741
15467SOL    HW248409   4.590   0.270   5.762
15468SOL     OW48410   5.442   0.560   7.418
15468SOL    HW148411   5.404   0.640   7.377
15468SOL    HW248412   5.467   0.509   7.338
15469SOL     OW48413   5.089   1.156   6.150
15469SOL    HW148414   5.166   1.143   6.093
15469SOL    HW248415   5.035   1.215   6.094
15470SOL     OW48416   4.266   0.197   6.463
15470SOL    HW148417   4.288   0.209   6.557
15470SOL    HW248418   4.269   0.287   6.428
15471SOL     OW48419   4.709   1.445   6.072
15471SOL    HW148420   4.670   1.508   6.008
15471SOL    HW248421   4.724   1.499   6.151
15472SOL     OW48422   4.069   1.810   6.444
15472SOL    HW148423   4.119   1.727   6.456
15472SOL    HW248424   4.136   1.877   6.463
15473SOL     OW48425   5.543   1.057   6.448
15473SOL    HW148426   5.489   1.026   6.373
15473SOL    HW248427   5.483   1.040   6.522
15474SOL     OW48428   4.946   1.560   7.078
15474SOL    HW148429   4.933   1.493   7.147
15474SOL    HW248430   4.899   1.520   7.003
15475SOL     OW48431   4.027   0.957   5.842
15475SOL    HW148432   4.102   0.978   5.786
15475SOL    HW248433   4.002   0.868   5.814
15476SOL     OW48434   5.206   0.749   6.298
15476SOL    HW148435   5.199   0.708   6.386
15476SOL    HW248436   5.278   0.813   6.310
15477SOL     OW48437   4.186   1.270   7.310
15477SOL    HW148438   4.147   1.273   7.219
15477SOL    HW248439   4.105   1.277   7.364
15478SOL     OW48440   4.819   1.769   5.835
15478SOL    HW148441   4.749   1.717   5.877
15478SOL    HW248442   4.830   1.722   5.750
15479SOL     OW48443   3.900   0.301   7.089
15479SOL    HW148444   3.820   0.349   7.116
15479SOL    HW248445   3.875   0.209   7.112
15480SOL     OW48446   5.345   1.376   5.678
15480SOL    HW148447   5.293   1.452   5.651
15480SOL    HW248448   5.291   1.301   5.645
15481SOL     OW48449   4.189   1.732   5.902
15481SOL    HW148450   4.235   1.783   5.971
15481SOL    HW248451   4.261   1.704   5.844
15482SOL     OW48452   5.124   0.103   6.043
15482SOL    HW148453   5.111   0.070   5.952
15482SOL    HW248454   5.212   0.142   6.037
15483SOL     OW48455   3.965   1.788   6.809
15483SOL    HW148456   4.026   1.723   6.847
15483SOL    HW248457   3.949   1.753   6.720
15484SOL     OW48458   4.680   1.704   6.467
15484SOL    HW148459   4.759   1.650   6.483
15484SOL    HW248460   4.633   1.652   6.399
15485SOL     OW48461   4.120   0.685   6.050
15485SOL    HW148462   4.137   0.588   6.057
15485SOL    HW248463   4.031   0.690   6.088
15486SOL     OW48464   5.262   0.243   7.301
15486SOL    HW148465   5.267   0.251   7.398
15486SOL    HW248466   5.200   0.169   7.294
15487SOL     OW48467   4.367   0.134   5.673
15487SOL    HW148468   4.404   0.052   5.708
15487SOL    HW248469   4.311   0.102   5.599
15488SOL     OW48470   4.486   0.277   7.336
15488SOL    HW148471   4.571   0.229   7.336
15488SOL    HW248472   4.442   0.239   7.413
15489SOL     OW48473   4.606   1.544   6.783
15489SOL    HW148474   4.600   1.515   6.690
15489SOL    HW248475   4.661   1.476   6.823
15490SOL     OW48476   5.048   0.594   7.009
15490SOL    HW148477   5.089   0.557   7.090
15490SOL    HW248478   5.097   0.678   6.998
15491SOL     OW48479   4.549   1.403   6.521
15491SOL    HW148480   4.633   1.392   6.473
15491SOL    HW248481   4.484   1.404   6.449
15492SOL     OW48482   4.665   0.531   6.497
15492SOL    HW148483   4.634   0.510   6.406
15492SOL    HW248484   4.697   0.443   6.524
15493SOL     OW48485   4.261   0.028   6.089
15493SOL    HW148486   4.174   0.030   6.133
15493SOL    HW248487   4.254   0.104   6.029
15494SOL     OW48488   5.171   1.180   5.614
15494SOL    HW148489   5.195   1.098   5.663
15494SOL    HW248490   5.083   1.201   5.647
15495SOL     OW48491   4.026   0.042   5.802
15495SOL    HW148492   4.080   0.119   5.782
15495SOL    HW248493   4.090  11.080   5.836
15496SOL     OW48494   4.660   0.255   6.078
15496SOL    HW148495   4.642   0.292   5.989
15496SOL    HW248496   4.757   0.261   6.080
15497SOL     OW48497   4.819   0.717   7.059
15497SOL    HW148498   4.753   0.646   7.057
15497SOL    HW248499   4.903   0.668   7.045
15498SOL     OW48500   4.960   1.575   6.368
15498SOL    HW148501   4.953   1.636   6.292
15498SOL    HW248502   5.029   1.617   6.422
15499SOL     OW48503   4.190   1.172   6.330
15499SOL    HW148504   4.114   1.140   6.383
15499SOL    HW248505   4.161   1.149   6.239
15500SOL     OW48506   4.980   1.812   6.185
15500SOL    HW148507   5.032   1.883   6.143
15500SOL    HW248508   4.928   1.862   6.250
15501SOL     OW48509   4.785   0.545   5.596
15501SOL    HW148510   4.734   0.626   5.580
15501SOL    HW248511   4.852   0.571   5.660
15502SOL     OW48512   3.779   0.568   6.977
15502SOL    HW148513   3.874   0.554   6.962
15502SOL    HW248514   3.781   0.638   7.045
15503SOL     OW48515   4.283   0.213   6.757
15503SOL    HW148516   4.327   0.161   6.824
15503SOL    HW248517   4.192   0.220   6.794
15504SOL     OW48518   4.591   0.445   6.257
15504SOL    HW148519   4.556   0.501   6.187
15504SOL    HW248520   4.615   0.364   6.209
15505SOL     OW48521   4.712   0.018   6.358
15505SOL    HW148522   4.661   0.046   6.280
15505SOL    HW248523   4.676  11.032   6.375
15506SOL     OW48524   5.147   1.182   6.468
15506SOL    HW148525   5.080   1.115   6.488
15506SOL    HW248526   5.151   1.176   6.371
15507SOL     OW48527   5.210   0.599   6.544
15507SOL    HW148528   5.141   0.531   6.550
15507SOL    HW248529   5.262   0.585   6.625
15508SOL     OW48530   5.559   0.812   5.985
15508SOL    HW148531   5.617   0.762   6.046
15508SOL    HW248532   5.541   0.744   5.917
15509SOL     OW48533   4.222   1.414   5.712
15509SOL    HW148534   4.138   1.409   5.760
15509SOL    HW248535   4.205   1.361   5.633
15510SOL     OW48536   5.393   1.299   6.240
15510SOL    HW148537   5.489   1.301   6.256
15510SOL    HW248538   5.362   1.385   6.272
15511SOL     OW48539   5.140   0.591   5.660
15511SOL    HW148540   5.084   0.571   5.737
15511SOL    HW248541   5.204   0.518   5.667
15512SOL     OW48542   4.238   0.241   5.896
15512SOL    HW148543   4.294   0.209   5.823
15512SOL    HW248544   4.215   0.331   5.865
15513SOL     OW48545   5.455   1.224   7.163
15513SOL    HW148546   5.546   1.195   7.153
15513SOL    HW248547   5.472   1.319   7.184
15514SOL     OW48548   4.788   1.369   6.923
15514SOL    HW148549   4.711   1.330   6.969
15514SOL    HW248550   4.861   1.316   6.960
15515SOL     OW48551   5.321   1.613   7.225
15515SOL    HW148552   5.330   1.652   7.136
15515SOL    HW248553   5.405   1.564   7.232
15516SOL     OW48554   4.846   1.231   6.688
15516SOL    HW148555   4.786   1.267   6.753
15516SOL    HW248556   4.813   1.267   6.604
15517SOL     OW48557   5.318   1.095   6.663
15517SOL    HW148558   5.330   1.161   6.733
15517SOL    HW248559   5.263   1.143   6.599
15518SOL     OW48560   4.627   0.099   6.992
15518SOL    HW148561   4.654   0.076   6.902
15518SOL    HW248562   4.710   0.133   7.029
15519SOL     OW48563   4.726   1.132   7.328
15519SOL    HW148564   4.636   1.160   7.347
15519SOL    HW248565   4.712   1.055   7.269
15520SOL     OW48566   4.433   1.064   5.927
15520SOL    HW148567   4.414   1.043   6.019
15520SOL    HW248568   4.510   1.007   5.907
15521SOL     OW48569   4.143   0.801   6.850
15521SOL    HW148570   4.216   0.796   6.915
15521SOL    HW248571   4.100   0.715   6.860
15522SOL     OW48572   5.014   0.387   6.845
15522SOL    HW148573   5.027   0.464   6.905
15522SOL    HW248574   4.918   0.392   6.826
15523SOL     OW48575   3.799   1.567   6.927
15523SOL    HW148576   3.798   1.659   6.896
15523SOL    HW248577   3.893   1.543   6.922
15524SOL     OW48578   4.092   1.108   6.089
15524SOL    HW148579   4.111   1.172   6.019
15524SOL    HW248580   4.064   1.031   6.038
15525SOL     OW48581   4.249   0.545   6.412
15525SOL    HW148582   4.280   0.614   6.349
15525SOL    HW248583   4.316   0.551   6.483
15526SOL     OW48584   4.949   1.319   5.977
15526SOL    HW148585   4.991   1.398   6.013
15526SOL    HW248586   4.857   1.332   6.006
15527SOL     OW48587   5.025   1.473   6.758
15527SOL    HW148588   5.090   1.470   6.831
15527SOL    HW248589   4.967   1.398   6.778
15528SOL     OW48590   5.297   0.615   6.049
15528SOL    HW148591   5.251   0.675   6.110
15528SOL    HW248592   5.328   0.674   5.980
15529SOL     OW48593   4.063   1.497   6.902
15529SOL    HW148594   4.055   1.467   6.808
15529SOL    HW248595   4.156   1.525   6.903
15530SOL     OW48596   4.156   0.724   7.209
15530SOL    HW148597   4.216   0.775   7.151
15530SOL    HW248598   4.187   0.634   7.193
15531SOL     OW48599   5.346   0.766   7.264
15531SOL    HW148600   5.258   0.806   7.268
15531SOL    HW248601   5.387   0.817   7.191
15532SOL     OW48602   4.725   0.142   7.350
15532SOL    HW148603   4.781   0.219   7.334
15532SOL    HW248604   4.782   0.071   7.316
15533SOL     OW48605   4.217   0.050   7.346
15533SOL    HW148606   4.164  11.100   7.284
15533SOL    HW248607   4.157   0.126   7.364
15534SOL     OW48608   4.311   0.894   6.633
15534SOL    HW148609   4.343   0.986   6.636
15534SOL    HW248610   4.259   0.885   6.715
15535SOL     OW48611   5.077   0.873   6.609
15535SOL    HW148612   4.996   0.834   6.573
15535SOL    HW248613   5.135   0.796   6.613
15536SOL     OW48614   4.957   0.521   5.855
15536SOL    HW148615   4.968   0.440   5.907
15536SOL    HW248616   4.896   0.572   5.910
15537SOL     OW48617   4.033   0.222   6.858
15537SOL    HW148618   3.988   0.259   6.936
15537SOL    HW248619   3.979   0.144   6.839
15538SOL     OW48620   3.753   1.301   6.870
15538SOL    HW148621   3.772   1.246   6.949
15538SOL    HW248622   3.766   1.391   6.902
15539SOL     OW48623   4.424   0.606   6.610
15539SOL    HW148624   4.515   0.591   6.578
15539SOL    HW248625   4.414   0.702   6.605
15540SOL     OW48626   5.489   0.954   7.428
15540SOL    HW148627   5.437   0.904   7.364
15540SOL    HW248628   5.427   0.963   7.501
15541SOL     OW48629   4.014   0.047   6.205
15541SOL    HW148630   3.992   0.142   6.215
15541SOL    HW248631   4.027   0.022   6.298
15542SOL     OW48632   5.440   0.398   5.965
15542SOL    HW148633   5.388   0.322   5.936
15542SOL    HW248634   5.370   0.461   5.993
15543SOL     OW48635   4.809   0.749   6.551
15543SOL    HW148636   4.781   0.769   6.643
15543SOL    HW248637   4.764   0.662   6.539
15544SOL     OW48638   4.700   1.566   7.291
15544SOL    HW148639   4.694   1.621   7.210
15544SOL    HW248640   4.745   1.486   7.260
15545SOL     OW48641   4.084   0.904   7.387
15545SOL    HW148642   4.171   0.919   7.425
15545SOL    HW248643   4.100   0.827   7.329
15546SOL     OW48644   5.021   0.829   5.611
15546SOL    HW148645   5.075   0.747   5.623
15546SOL    HW248646   5.042   0.854   5.519
15547SOL     OW48647   4.795   1.367   6.428
15547SOL    HW148648   4.814   1.287   6.375
15547SOL    HW248649   4.865   1.429   6.403
15548SOL     OW48650   4.013   0.825   6.583
15548SOL    HW148651   4.107   0.845   6.568
15548SOL    HW248652   4.017   0.730   6.606
15549SOL     OW48653   4.056   0.541   6.587
15549SOL    HW148654   4.015   0.455   6.565
15549SOL    HW248655   4.123   0.548   6.516
15550SOL     OW48656   4.874   0.375   7.276
15550SOL    HW148657   4.823   0.432   7.338
15550SOL    HW248658   4.960   0.421   7.274
15551SOL     OW48659   4.896   0.217   7.051
15551SOL    HW148660   4.893   0.281   7.125
15551SOL    HW248661   4.922   0.273   6.977
15552SOL     OW48662   3.728   1.324   5.780
15552SOL    HW148663   3.635   1.339   5.749
15552SOL    HW248664   3.722   1.233   5.815
15553SOL     OW48665   3.819   1.779   6.531
15553SOL    HW148666   3.791   1.707   6.471
15553SOL    HW248667   3.911   1.796   6.500
15554SOL     OW48668   4.210   1.585   6.513
15554SOL    HW148669   4.279   1.651   6.536
15554SOL    HW248670   4.259   1.522   6.458
15555SOL     OW48671   4.704   0.765   6.801
15555SOL    HW148672   4.767   0.752   6.873
15555SOL    HW248673   4.620   0.754   6.845
15556SOL     OW48674   3.757   0.536   6.693
15556SOL    HW148675   3.835   0.515   6.640
15556SOL    HW248676   3.794   0.547   6.782
15557SOL     OW48677   3.934   0.520   7.312
15557SOL    HW148678   3.974   0.462   7.246
15557SOL    HW248679   3.898   0.592   7.258
15558SOL     OW48680   5.112   0.917   7.241
15558SOL    HW148681   5.137   1.011   7.239
15558SOL    HW248682   5.095   0.899   7.147
15559SOL     OW48683   4.543   0.576   5.963
15559SOL    HW148684   4.556   0.497   5.908
15559SOL    HW248685   4.467   0.620   5.921
15560SOL     OW48686   5.356   0.618   6.778
15560SOL    HW148687   5.334   0.555   6.849
15560SOL    HW248688   5.443   0.585   6.748
15561SOL     OW48689   3.973   1.539   7.306
15561SOL    HW148690   3.959   1.605   7.375
15561SOL    HW248691   3.978   1.456   7.358
15562SOL     OW48692   4.415   0.466   6.843
15562SOL    HW148693   4.368   0.385   6.815
15562SOL    HW248694   4.405   0.523   6.764
15563SOL     OW48695   4.647   1.702   7.063
15563SOL    HW148696   4.642   1.667   6.973
15563SOL    HW248697   4.637   1.798   7.051
15564SOL     OW48698   4.178   0.478   5.786
15564SOL    HW148699   4.238   0.553   5.795
15564SOL    HW248700   4.092   0.524   5.780
15565SOL     OW48701   3.827   1.130   7.061
15565SOL    HW148702   3.842   1.072   7.140
15565SOL    HW248703   3.851   1.071   6.987
15566SOL     OW48704   5.044   1.040   6.819
15566SOL    HW148705   5.063   0.988   6.738
15566SOL    HW248706   4.979   1.104   6.785
15567SOL     OW48707   5.035   0.849   5.889
15567SOL    HW148708   4.956   0.821   5.937
15567SOL    HW248709   5.007   0.847   5.796
15568SOL     OW48710   5.473   1.749   6.713
15568SOL    HW148711   5.556   1.771   6.667
15568SOL    HW248712   5.473   1.651   6.701
15569SOL     OW48713   4.962   1.726   6.698
15569SOL    HW148714   5.051   1.749   6.668
15569SOL    HW248715   4.972   1.631   6.717
15570SOL     OW48716   3.825   1.250   6.617
15570SOL    HW148717   3.794   1.267   6.709
15570SOL    HW248718   3.747   1.207   6.579
15571SOL     OW48719   4.420   1.639   7.320
15571SOL    HW148720   4.388   1.728   7.301
15571SOL    HW248721   4.514   1.644   7.295
15572SOL     OW48722   5.416   0.106   6.086
15572SOL    HW148723   5.490   0.123   6.025
15572SOL    HW248724   5.456   0.051   6.154
15573SOL     OW48725   5.084   1.576   6.072
15573SOL    HW148726   5.145   1.589   5.997
15573SOL    HW248727   5.044   1.663   6.084
15574SOL     OW48728   3.875   1.801   7.415
15574SOL    HW148729   3.830   1.730   7.466
15574SOL    HW248730   3.925   1.845   7.485
15575SOL     OW48731   4.984   0.916   6.257
15575SOL    HW148732   5.063   0.860   6.271
15575SOL    HW248733   5.022   0.992   6.209
15576SOL     OW48734   4.533   1.261   7.001
15576SOL    HW148735   4.506   1.311   7.081
15576SOL    HW248736   4.454   1.273   6.945
15577SOL     OW48737   4.393   1.617   5.737
15577SOL    HW148738   4.404   1.626   5.641
15577SOL    HW248739   4.335   1.538   5.741
15578SOL     OW48740   5.346   1.722   6.972
15578SOL    HW148741   5.393   1.736   6.887
15578SOL    HW248742   5.334   1.814   7.003
15579SOL     OW48743   5.590   0.124   6.527
15579SOL    HW148744   5.602   0.044   6.474
15579SOL    HW248745   5.509   0.163   6.488
15580SOL     OW48746   3.963   0.303   6.283
15580SOL    HW148747   3.878   0.349   6.265
15580SOL    HW248748   3.970   0.310   6.379
15581SOL     OW48749   4.910   1.630   5.613
15581SOL    HW148750   4.916   1.535   5.632
15581SOL    HW248751   4.853   1.633   5.533
15582SOL     OW48752   4.545   0.993   6.965
15582SOL    HW148753   4.567   1.000   6.872
15582SOL    HW248754   4.542   1.088   6.992
15583SOL     OW48755   4.634   0.907   5.853
15583SOL    HW148756   4.711   0.940   5.802
15583SOL    HW248757   4.674   0.835   5.904
15584SOL     OW48758   5.292   1.642   5.626
15584SOL    HW148759   5.195   1.651   5.625
15584SOL    HW248760   5.310   1.638   5.529
15585SOL     OW48761   4.070   1.275   7.073
15585SOL    HW148762   4.065   1.344   7.005
15585SOL    HW248763   3.985   1.229   7.064
15586SOL     OW48764   5.334   1.307   6.844
15586SOL    HW148765   5.406   1.296   6.909
15586SOL    HW248766   5.279   1.376   6.886
15587SOL     OW48767   4.788   1.116   6.317
15587SOL    HW148768   4.711   1.067   6.352
15587SOL    HW248769   4.844   1.043   6.285
15588SOL     OW48770   4.754   0.248   6.561
15588SOL    HW148771   4.749   0.195   6.479
15588SOL    HW248772   4.739   0.180   6.628
15589SOL     OW48773   4.335   1.478   6.076
15589SOL    HW148774   4.384   1.434   6.005
15589SOL    HW248775   4.267   1.526   6.028
15590SOL     OW48776   5.435   0.369   6.965
15590SOL    HW148777   5.495   0.444   6.948
15590SOL    HW248778   5.475   0.302   6.905
15591SOL     OW48779   3.972   1.385   5.859
15591SOL    HW148780   3.876   1.371   5.849
15591SOL    HW248781   3.979   1.406   5.955
15592SOL     OW48782   3.853   0.991   7.282
15592SOL    HW148783   3.782   0.990   7.349
15592SOL    HW248784   3.933   0.970   7.334
15593SOL     OW48785   4.391   0.217   7.073
15593SOL    HW148786   4.472   0.172   7.041
15593SOL    HW248787   4.420   0.247   7.160
15594SOL     OW48788   3.796   0.359   5.617
15594SOL    HW148789   3.704   0.369   5.588
15594SOL    HW248790   3.840   0.427   5.562
15595SOL     OW48791   5.161   0.846   6.974
15595SOL    HW148792   5.122   0.913   6.915
15595SOL    HW248793   5.256   0.861   6.960
15596SOL     OW48794   3.762   0.171   5.900
15596SOL    HW148795   3.761   0.239   5.831
15596SOL    HW248796   3.851   0.134   5.890
15597SOL     OW48797   4.924   1.362   5.700
15597SOL    HW148798   4.836   1.322   5.697
15597SOL    HW248799   4.949   1.349   5.794
15598SOL     OW48800   4.347   0.798   7.019
15598SOL    HW148801   4.400   0.879   7.019
15598SOL    HW248802   4.417   0.731   7.023
15599SOL     OW48803   5.238   1.749   6.552
15599SOL    HW148804   5.274   1.800   6.479
15599SOL    HW248805   5.313   1.744   6.613
15600SOL     OW48806   4.462   0.561   7.268
15600SOL    HW148807   4.497   0.627   7.330
15600SOL    HW248808   4.456   0.480   7.322
15601SOL     OW48809   5.189   1.178   7.206
15601SOL    HW148810   5.187   1.186   7.304
15601SOL    HW248811   5.283   1.199   7.186
15602SOL     OW48812   4.095   1.733   7.148
15602SOL    HW148813   4.013   1.784   7.137
15602SOL    HW248814   4.061   1.648   7.182
15603SOL     OW48815   5.408   0.896   6.823
15603SOL    HW148816   5.384   0.812   6.780
15603SOL    HW248817   5.374   0.963   6.760
15604SOL     OW48818   4.935   0.307   6.048
15604SOL    HW148819   4.996   0.231   6.043
15604SOL    HW248820   4.974   0.359   6.121
15605SOL     OW48821   4.308   0.758   6.242
15605SOL    HW148822   4.341   0.848   6.228
15605SOL    HW248823   4.242   0.749   6.171
15606SOL     OW48824   5.495   0.374   7.228
15606SOL    HW148825   5.470   0.381   7.134
15606SOL    HW248826   5.423   0.317   7.261
15607SOL     OW48827   5.462   0.928   7.089
15607SOL    HW148828   5.466   1.024   7.101
15607SOL    HW248829   5.464   0.921   6.991
15608SOL     OW48830   4.585   1.366   5.612
15608SOL    HW148831   4.565   1.381   5.706
15608SOL    HW248832   4.611   1.453   5.579
15609SOL     OW48833   4.368   1.806   6.523
15609SOL    HW148834   4.357   1.901   6.503
15609SOL    HW248835   4.464   1.794   6.518
15610SOL     OW48836   4.601   0.955   6.433
15610SOL    HW148837   4.648   0.878   6.469
15610SOL    HW248838   4.575   1.004   6.512
15611SOL     OW48839   4.831   0.995   5.693
15611SOL    HW148840   4.800   1.047   5.617
15611SOL    HW248841   4.894   0.932   5.651
15612SOL     OW48842   5.581   1.549   6.400
15612SOL    HW148843   5.486   1.557   6.414
15612SOL    HW248844   5.607   1.493   6.474
15613SOL     OW48845   3.968   1.311   7.455
15613SOL    HW148846   3.884   1.264   7.441
15613SOL    HW248847   3.966   1.326   7.551
15614SOL     OW48848   3.809   1.261   6.247
15614SOL    HW148849   3.807   1.203   6.324
15614SOL    HW248850   3.886   1.227   6.198
15615SOL     OW48851   4.401   1.397   7.194
15615SOL    HW148852   4.325   1.348   7.231
15615SOL    HW248853   4.392   1.483   7.239
15616SOL     OW48854   5.546   0.195   6.795
15616SOL    HW148855   5.531   0.098   6.801
15616SOL    HW248856   5.554   0.205   6.699
15617SOL     OW48857   4.135   0.413   6.092
15617SOL    HW148858   4.171   0.335   6.046
15617SOL    HW248859   4.094   0.375   6.172
15618SOL     OW48860   5.450   1.486   6.657
15618SOL    HW148861   5.362   1.454   6.631
15618SOL    HW248862   5.464   1.434   6.737
15619SOL     OW48863   4.046   0.545   6.870
15619SOL    HW148864   4.111   0.496   6.924
15619SOL    HW248865   4.072   0.525   6.778
15620SOL     OW48866   4.541   1.594   6.264
15620SOL    HW148867   4.536   1.621   6.171
15620SOL    HW248868   4.460   1.543   6.276
15621SOL     OW48869   5.154   0.238   6.678
15621SOL    HW148870   5.172   0.156   6.725
15621SOL    HW248871   5.108   0.292   6.746
15622SOL     OW48872   4.721   0.011   6.744
15622SOL    HW148873   4.675  11.028   6.730
15622SOL    HW248874   4.815  11.087   6.729
15623SOL     OW48875   4.514   1.341   5.899
15623SOL    HW148876   4.484   1.249   5.894
15623SOL    HW248877   4.579   1.337   5.971
15624SOL     OW48878   4.324   1.561   6.851
15624SOL    HW148879   4.323   1.648   6.894
15624SOL    HW248880   4.419   1.555   6.829
15625SOL     OW48881   5.047   0.024   5.801
15625SOL    HW148882   5.091   0.101   5.759
15625SOL    HW248883   4.953   0.047   5.796
15626SOL     OW48884   5.005   0.460   6.255
15626SOL    HW148885   4.954   0.543   6.246
15626SOL    HW248886   4.993   0.437   6.349
15627SOL     OW48887   5.347   0.219   6.451
15627SOL    HW148888   5.272   0.228   6.511
15627SOL    HW248889   5.343   0.303   6.403
15628SOL     OW48890   3.766   1.067   5.895
15628SOL    HW148891   3.859   1.056   5.865
15628SOL    HW248892   3.742   0.975   5.914
15629SOL     OW48893   4.595   1.644   5.916
15629SOL    HW148894   4.521   1.631   5.854
15629SOL    HW248895   4.574   1.728   5.962
15630SOL     OW48896   3.954   0.624   7.579
15630SOL    HW148897   3.860   0.622   7.598
15630SOL    HW248898   3.958   0.611   7.482
15631SOL     OW48899   3.928   0.252   8.433
15631SOL    HW148900   3.942   0.265   8.529
15631SOL    HW248901   3.985   0.175   8.414
15632SOL     OW48902   3.695   0.323   8.144
15632SOL    HW148903   3.621   0.386   8.159
15632SOL    HW248904   3.666   0.279   8.062
15633SOL     OW48905   4.295   1.291   8.650
15633SOL    HW148906   4.211   1.294   8.603
15633SOL    HW248907   4.307   1.384   8.677
15634SOL     OW48908   5.266   1.529   8.157
15634SOL    HW148909   5.230   1.504   8.245
15634SOL    HW248910   5.190   1.524   8.096
15635SOL     OW48911   4.851   0.688   8.157
15635SOL    HW148912   4.887   0.777   8.137
15635SOL    HW248913   4.826   0.699   8.250
15636SOL     OW48914   5.492   0.602   7.679
15636SOL    HW148915   5.478   0.590   7.583
15636SOL    HW248916   5.449   0.522   7.713
15637SOL     OW48917   4.462   1.167   8.470
15637SOL    HW148918   4.404   1.209   8.536
15637SOL    HW248919   4.504   1.246   8.430
15638SOL     OW48920   4.608   0.764   9.253
15638SOL    HW148921   4.578   0.822   9.325
15638SOL    HW248922   4.636   0.828   9.185
15639SOL     OW48923   4.414   1.032   8.108
15639SOL    HW148924   4.481   1.013   8.175
15639SOL    HW248925   4.345   1.079   8.159
15640SOL     OW48926   4.420   1.156   9.258
15640SOL    HW148927   4.462   1.239   9.288
15640SOL    HW248928   4.334   1.186   9.224
15641SOL     OW48929   4.054   1.420   8.509
15641SOL    HW148930   3.978   1.388   8.459
15641SOL    HW248931   4.098   1.483   8.448
15642SOL     OW48932   5.201   1.506   8.824
15642SOL    HW148933   5.252   1.588   8.840
15642SOL    HW248934   5.130   1.513   8.891
15643SOL     OW48935   4.165   0.412   8.936
15643SOL    HW148936   4.242   0.353   8.933
15643SOL    HW248937   4.091   0.351   8.954
15644SOL     OW48938   5.345   0.466   8.201
15644SOL    HW148939   5.286   0.487   8.128
15644SOL    HW248940   5.328   0.539   8.262
15645SOL     OW48941   3.948   1.715   7.923
15645SOL    HW148942   3.975   1.794   7.974
15645SOL    HW248943   4.007   1.720   7.846
15646SOL     OW48944   4.848   1.349   9.110
15646SOL    HW148945   4.893   1.346   9.195
15646SOL    HW248946   4.799   1.265   9.114
15647SOL     OW48947   3.983   1.440   7.979
15647SOL    HW148948   3.981   1.537   7.975
15647SOL    HW248949   3.911   1.421   8.041
15648SOL     OW48950   3.991   1.061   8.360
15648SOL    HW148951   3.994   1.047   8.455
15648SOL    HW248952   3.936   1.141   8.361
15649SOL     OW48953   4.316   1.803   8.848
15649SOL    HW148954   4.249   1.774   8.913
15649SOL    HW248955   4.342   1.891   8.883
15650SOL     OW48956   4.305   0.988   7.566
15650SOL    HW148957   4.353   1.042   7.500
15650SOL    HW248958   4.345   1.022   7.649
15651SOL     OW48959   5.332   0.105   8.933
15651SOL    HW148960   5.338   0.153   8.850
15651SOL    HW248961   5.297   0.173   8.993
15652SOL     OW48962   3.840   0.663   8.020
15652SOL    HW148963   3.824   0.568   8.017
15652SOL    HW248964   3.801   0.689   8.104
15653SOL     OW48965   5.576   1.722   7.803
15653SOL    HW148966   5.650   1.717   7.867
15653SOL    HW248967   5.586   1.813   7.770
15654SOL     OW48968   3.786   1.595   7.567
15654SOL    HW148969   3.770   1.501   7.586
15654SOL    HW248970   3.751   1.638   7.647
15655SOL     OW48971   5.418   0.910   8.071
15655SOL    HW148972   5.504   0.886   8.033
15655SOL    HW248973   5.384   0.974   8.007
15656SOL     OW48974   5.368   1.122   7.892
15656SOL    HW148975   5.458   1.119   7.855
15656SOL    HW248976   5.377   1.189   7.962
15657SOL     OW48977   3.849   0.742   9.029
15657SOL    HW148978   3.940   0.771   9.047
15657SOL    HW248979   3.800   0.818   9.064
15658SOL     OW48980   4.316   1.411   8.202
15658SOL    HW148981   4.276   1.322   8.213
15658SOL    HW248982   4.302   1.425   8.106
15659SOL     OW48983   5.011   1.233   8.867
15659SOL    HW148984   5.039   1.160   8.809
15659SOL    HW248985   5.063   1.216   8.948
15660SOL     OW48986   4.551   0.004   7.966
15660SOL    HW148987   4.581   0.095   7.943
15660SOL    HW248988   4.457   0.007   7.943
15661SOL     OW48989   3.901   0.951   8.675
15661SOL    HW148990   3.976   0.898   8.705
15661SOL    HW248991   3.828   0.889   8.667
15662SOL     OW48992   5.252   0.968   7.639
15662SOL    HW148993   5.172   0.921   7.670
15662SOL    HW248994   5.288   1.003   7.722
15663SOL     OW48995   4.906   1.796   9.070
15663SOL    HW148996   4.909   1.864   9.001
15663SOL    HW248997   4.927   1.715   9.020
15664SOL     OW48998   4.045   0.255   9.258
15664SOL    HW148999   4.084   0.329   9.305
15664SOL    HW249000   3.950   0.265   9.277
15665SOL     OW49001   5.202   1.433   8.412
15665SOL    HW149002   5.134   1.452   8.480
15665SOL    HW249003   5.173   1.344   8.381
15666SOL     OW49004   5.381   1.740   8.048
15666SOL    HW149005   5.369   1.704   7.959
15666SOL    HW249006   5.350   1.666   8.103
15667SOL     OW49007   4.307   0.724   7.704
15667SOL    HW149008   4.317   0.806   7.654
15667SOL    HW249009   4.236   0.745   7.767
15668SOL     OW49010   4.999   0.373   8.385
15668SOL    HW149011   4.913   0.329   8.399
15668SOL    HW249012   5.058   0.317   8.439
15669SOL     OW49013   5.302   1.641   7.757
15669SOL    HW149014   5.398   1.655   7.763
15669SOL    HW249015   5.293   1.637   7.660
15670SOL     OW49016   4.534   0.628   8.886
15670SOL    HW149017   4.513   0.604   8.980
15670SOL    HW249018   4.496   0.551   8.839
15671SOL     OW49019   5.112   0.488   9.121
15671SOL    HW149020   5.109   0.538   9.205
15671SOL    HW249021   5.179   0.421   9.139
15672SOL     OW49022   4.694   0.915   9.041
15672SOL    HW149023   4.752   0.844   9.005
15672SOL    HW249024   4.642   0.937   8.960
15673SOL     OW49025   4.712   0.382   8.675
15673SOL    HW149026   4.620   0.396   8.702
15673SOL    HW249027   4.703   0.336   8.590
15674SOL     OW49028   4.771   0.708   7.874
15674SOL    HW149029   4.791   0.702   7.969
15674SOL    HW249030   4.686   0.660   7.868
15675SOL     OW49031   3.854   0.830   8.267
15675SOL    HW149032   3.878   0.890   8.196
15675SOL    HW249033   3.783   0.881   8.310
15676SOL     OW49034   3.826   1.832   9.011
15676SOL    HW149035   3.837   1.813   9.107
15676SOL    HW249036   3.731   1.826   9.000
15677SOL     OW49037   4.600   0.347   7.678
15677SOL    HW149038   4.639   0.403   7.610
15677SOL    HW249039   4.580   0.267   7.627
15678SOL     OW49040   5.451   0.560   9.280
15678SOL    HW149041   5.411   0.639   9.238
15678SOL    HW249042   5.473   0.508   9.201
15679SOL     OW49043   5.089   1.149   8.008
15679SOL    HW149044   5.168   1.140   7.954
15679SOL    HW249045   5.038   1.214   7.956
15680SOL     OW49046   4.259   0.207   8.338
15680SOL    HW149047   4.298   0.215   8.427
15680SOL    HW249048   4.286   0.288   8.292
15681SOL     OW49049   4.711   1.446   7.937
15681SOL    HW149050   4.669   1.507   7.873
15681SOL    HW249051   4.713   1.497   8.019
15682SOL     OW49052   4.068   1.819   8.304
15682SOL    HW149053   4.124   1.740   8.317
15682SOL    HW249054   4.132   1.890   8.318
15683SOL     OW49055   5.541   1.041   8.310
15683SOL    HW149056   5.484   1.017   8.235
15683SOL    HW249057   5.480   1.033   8.385
15684SOL     OW49058   4.954   1.561   8.945
15684SOL    HW149059   4.927   1.497   9.013
15684SOL    HW249060   4.904   1.528   8.869
15685SOL     OW49061   4.034   0.950   7.708
15685SOL    HW149062   4.101   0.980   7.644
15685SOL    HW249063   4.006   0.866   7.669
15686SOL     OW49064   5.196   0.755   8.165
15686SOL    HW149065   5.191   0.712   8.252
15686SOL    HW249066   5.275   0.811   8.172
15687SOL     OW49067   4.185   1.268   9.170
15687SOL    HW149068   4.143   1.274   9.081
15687SOL    HW249069   4.107   1.278   9.227
15688SOL     OW49070   4.811   1.776   7.695
15688SOL    HW149071   4.741   1.722   7.735
15688SOL    HW249072   4.832   1.726   7.613
15689SOL     OW49073   3.900   0.299   8.949
15689SOL    HW149074   3.827   0.350   8.987
15689SOL    HW249075   3.881   0.212   8.988
15690SOL     OW49076   5.356   1.367   7.548
15690SOL    HW149077   5.327   1.452   7.511
15690SOL    HW249078   5.295   1.304   7.506
15691SOL     OW49079   4.179   1.737   7.766
15691SOL    HW149080   4.230   1.784   7.834
15691SOL    HW249081   4.248   1.703   7.707
15692SOL     OW49082   5.120   0.088   7.891
15692SOL    HW149083   5.125   0.073   7.796
15692SOL    HW249084   5.212   0.101   7.917
15693SOL     OW49085   3.971   1.799   8.680
15693SOL    HW149086   4.026   1.731   8.720
15693SOL    HW249087   3.957   1.765   8.590
15694SOL     OW49088   4.680   1.698   8.333
15694SOL    HW149089   4.767   1.655   8.336
15694SOL    HW249090   4.632   1.643   8.269
15695SOL     OW49091   4.100   0.675   7.912
15695SOL    HW149092   4.117   0.579   7.921
15695SOL    HW249093   4.006   0.682   7.932
15696SOL     OW49094   5.261   0.243   9.169
15696SOL    HW149095   5.262   0.253   9.267
15696SOL    HW249096   5.198   0.171   9.161
15697SOL     OW49097   4.371   0.130   7.545
15697SOL    HW149098   4.399   0.047   7.586
15697SOL    HW249099   4.312   0.098   7.474
15698SOL     OW49100   4.492   0.289   9.202
15698SOL    HW149101   4.575   0.238   9.203
15698SOL    HW249102   4.443   0.249   9.276
15699SOL     OW49103   4.608   1.540   8.647
15699SOL    HW149104   4.604   1.514   8.553
15699SOL    HW249105   4.676   1.481   8.684
15700SOL     OW49106   5.045   0.584   8.882
15700SOL    HW149107   5.081   0.549   8.967
15700SOL    HW249108   5.101   0.662   8.867
15701SOL     OW49109   4.539   1.408   8.378
15701SOL    HW149110   4.627   1.395   8.336
15701SOL    HW249111   4.479   1.406   8.303
15702SOL     OW49112   4.665   0.523   8.364
15702SOL    HW149113   4.635   0.501   8.273
15702SOL    HW249114   4.699   0.437   8.392
15703SOL     OW49115   4.268   0.031   7.955
15703SOL    HW149116   4.178   0.020   7.990
15703SOL    HW249117   4.258   0.107   7.895
15704SOL     OW49118   5.168   1.177   7.473
15704SOL    HW149119   5.191   1.105   7.535
15704SOL    HW249120   5.087   1.213   7.510
15705SOL     OW49121   4.021   0.048   7.661
15705SOL    HW149122   4.081   0.119   7.634
15705SOL    HW249123   4.082  11.080   7.690
15706SOL     OW49124   4.661   0.258   7.936
15706SOL    HW149125   4.635   0.296   7.850
15706SOL    HW249126   4.758   0.258   7.928
15707SOL     OW49127   4.821   0.719   8.916
15707SOL    HW149128   4.759   0.645   8.921
15707SOL    HW249129   4.906   0.672   8.907
15708SOL     OW49130   4.945   1.581   8.249
15708SOL    HW149131   4.947   1.631   8.165
15708SOL    HW249132   5.026   1.611   8.292
15709SOL     OW49133   4.194   1.166   8.191
15709SOL    HW149134   4.120   1.129   8.243
15709SOL    HW249135   4.163   1.149   8.099
15710SOL     OW49136   4.988   1.803   8.046
15710SOL    HW149137   5.038   1.860   7.984
15710SOL    HW249138   4.956   1.869   8.110
15711SOL     OW49139   4.769   0.556   7.453
15711SOL    HW149140   4.716   0.635   7.432
15711SOL    HW249141   4.839   0.591   7.510
15712SOL     OW49142   3.776   0.575   8.835
15712SOL    HW149143   3.870   0.555   8.822
15712SOL    HW249144   3.780   0.641   8.908
15713SOL     OW49145   4.280   0.213   8.628
15713SOL    HW149146   4.324   0.161   8.697
15713SOL    HW249147   4.187   0.213   8.657
15714SOL     OW49148   4.580   0.442   8.123
15714SOL    HW149149   4.569   0.503   8.049
15714SOL    HW249150   4.607   0.361   8.076
15715SOL     OW49151   4.720   0.007   8.220
15715SOL    HW149152   4.682   0.043   8.139
15715SOL    HW249153   4.662  11.032   8.237
15716SOL     OW49154   5.148   1.187   8.329
15716SOL    HW149155   5.106   1.104   8.356
15716SOL    HW249156   5.140   1.182   8.233
15717SOL     OW49157   5.208   0.605   8.416
15717SOL    HW149158   5.144   0.532   8.423
15717SOL    HW249159   5.263   0.594   8.497
15718SOL     OW49160   5.593   0.809   7.818
15718SOL    HW149161   5.637   0.757   7.888
15718SOL    HW249162   5.561   0.738   7.758
15719SOL     OW49163   4.225   1.417   7.568
15719SOL    HW149164   4.141   1.407   7.616
15719SOL    HW249165   4.214   1.359   7.492
15720SOL     OW49166   5.399   1.285   8.104
15720SOL    HW149167   5.497   1.292   8.107
15720SOL    HW249168   5.369   1.375   8.124
15721SOL     OW49169   5.135   0.599   7.512
15721SOL    HW149170   5.088   0.572   7.593
15721SOL    HW249171   5.222   0.560   7.524
15722SOL     OW49172   4.244   0.243   7.755
15722SOL    HW149173   4.301   0.212   7.683
15722SOL    HW249174   4.214   0.329   7.718
15723SOL     OW49175   5.463   1.230   9.028
15723SOL    HW149176   5.551   1.190   9.038
15723SOL    HW249177   5.486   1.324   9.034
15724SOL     OW49178   4.791   1.373   8.787
15724SOL    HW149179   4.713   1.336   8.833
15724SOL    HW249180   4.864   1.322   8.828
15725SOL     OW49181   5.331   1.619   9.090
15725SOL    HW149182   5.333   1.660   9.001
15725SOL    HW249183   5.405   1.556   9.083
15726SOL     OW49184   4.838   1.227   8.549
15726SOL    HW149185   4.781   1.272   8.612
15726SOL    HW249186   4.814   1.269   8.464
15727SOL     OW49187   5.328   1.093   8.516
15727SOL    HW149188   5.339   1.153   8.592
15727SOL    HW249189   5.275   1.148   8.456
15728SOL     OW49190   4.624   0.071   8.858
15728SOL    HW149191   4.652   0.059   8.766
15728SOL    HW249192   4.702   0.116   8.896
15729SOL     OW49193   4.724   1.129   9.197
15729SOL    HW149194   4.633   1.159   9.213
15729SOL    HW249195   4.712   1.055   9.134
15730SOL     OW49196   4.435   1.062   7.791
15730SOL    HW149197   4.427   1.047   7.886
15730SOL    HW249198   4.511   1.003   7.768
15731SOL     OW49199   4.131   0.789   8.700
15731SOL    HW149200   4.204   0.794   8.766
15731SOL    HW249201   4.094   0.700   8.718
15732SOL     OW49202   4.996   0.391   8.704
15732SOL    HW149203   5.010   0.460   8.773
15732SOL    HW249204   4.905   0.408   8.676
15733SOL     OW49205   3.797   1.570   8.789
15733SOL    HW149206   3.797   1.664   8.763
15733SOL    HW249207   3.892   1.548   8.786
15734SOL     OW49208   4.090   1.113   7.950
15734SOL    HW149209   4.084   1.183   7.884
15734SOL    HW249210   4.082   1.034   7.894
15735SOL     OW49211   4.246   0.559   8.281
15735SOL    HW149212   4.283   0.614   8.209
15735SOL    HW249213   4.320   0.555   8.345
15736SOL     OW49214   4.949   1.329   7.845
15736SOL    HW149215   4.992   1.410   7.879
15736SOL    HW249216   4.858   1.341   7.879
15737SOL     OW49217   5.028   1.471   8.619
15737SOL    HW149218   5.091   1.470   8.694
15737SOL    HW249219   4.961   1.407   8.646
15738SOL     OW49220   5.322   0.632   7.922
15738SOL    HW149221   5.281   0.695   7.984
15738SOL    HW249222   5.344   0.687   7.847
15739SOL     OW49223   4.061   1.500   8.759
15739SOL    HW149224   4.061   1.465   8.667
15739SOL    HW249225   4.153   1.533   8.764
15740SOL     OW49226   4.151   0.716   9.067
15740SOL    HW149227   4.208   0.770   9.009
15740SOL    HW249228   4.201   0.633   9.070
15741SOL     OW49229   5.361   0.777   9.140
15741SOL    HW149230   5.270   0.811   9.140
15741SOL    HW249231   5.396   0.819   9.059
15742SOL     OW49232   4.717   0.143   9.210
15742SOL    HW149233   4.773   0.220   9.192
15742SOL    HW249234   4.770   0.072   9.168
15743SOL     OW49235   4.219   0.048   9.200
15743SOL    HW149236   4.151  11.092   9.162
15743SOL    HW249237   4.166   0.129   9.218
15744SOL     OW49238   4.251   0.889   8.464
15744SOL    HW149239   4.308   0.966   8.449
15744SOL    HW249240   4.245   0.886   8.561
15745SOL     OW49241   5.083   0.877   8.471
15745SOL    HW149242   5.006   0.837   8.430
15745SOL    HW249243   5.140   0.800   8.484
15746SOL     OW49244   4.957   0.522   7.712
15746SOL    HW149245   4.966   0.448   7.774
15746SOL    HW249246   4.891   0.577   7.757
15747SOL     OW49247   4.011   0.217   8.700
15747SOL    HW149248   3.978   0.254   8.785
15747SOL    HW249249   3.985   0.125   8.708
15748SOL     OW49250   3.755   1.303   8.733
15748SOL    HW149251   3.774   1.247   8.810
15748SOL    HW249252   3.767   1.394   8.767
15749SOL     OW49253   4.426   0.599   8.478
15749SOL    HW149254   4.518   0.579   8.448
15749SOL    HW249255   4.423   0.696   8.473
15750SOL     OW49256   5.493   0.972   9.294
15750SOL    HW149257   5.453   0.911   9.230
15750SOL    HW249258   5.420   0.979   9.358
15751SOL     OW49259   4.011   0.015   8.068
15751SOL    HW149260   3.994   0.110   8.067
15751SOL    HW249261   4.022  -0.001   8.164
15752SOL     OW49262   5.308   0.397   7.788
15752SOL    HW149263   5.352   0.331   7.842
15752SOL    HW249264   5.305   0.475   7.848
15753SOL     OW49265   4.798   0.748   8.418
15753SOL    HW149266   4.775   0.767   8.511
15753SOL    HW249267   4.756   0.660   8.406
15754SOL     OW49268   4.705   1.572   9.154
15754SOL    HW149269   4.694   1.622   9.071
15754SOL    HW249270   4.738   1.486   9.123
15755SOL     OW49271   5.569   1.488   9.052
15755SOL    HW149272   5.589   1.515   8.961
15755SOL    HW249273   5.652   1.511   9.098
15756SOL     OW49274   4.075   0.898   9.243
15756SOL    HW149275   4.157   0.911   9.292
15756SOL    HW249276   4.097   0.822   9.185
15757SOL     OW49277   5.232   0.256   7.559
15757SOL    HW149278   5.156   0.202   7.589
15757SOL    HW249279   5.257   0.307   7.638
15758SOL     OW49280   4.998   0.833   7.466
15758SOL    HW149281   5.051   0.752   7.477
15758SOL    HW249282   5.035   0.867   7.381
15759SOL     OW49283   4.791   1.360   8.299
15759SOL    HW149284   4.808   1.286   8.237
15759SOL    HW249285   4.857   1.427   8.273
15760SOL     OW49286   4.043   0.541   8.438
15760SOL    HW149287   4.015   0.450   8.426
15760SOL    HW249288   4.121   0.544   8.378
15761SOL     OW49289   4.869   0.378   9.113
15761SOL    HW149290   4.825   0.432   9.182
15761SOL    HW249291   4.957   0.419   9.110
15762SOL     OW49292   4.890   0.208   8.903
15762SOL    HW149293   4.881   0.275   8.974
15762SOL    HW249294   4.912   0.264   8.827
15763SOL     OW49295   3.731   1.329   7.648
15763SOL    HW149296   3.638   1.344   7.616
15763SOL    HW249297   3.726   1.236   7.678
15764SOL     OW49298   3.822   1.786   8.393
15764SOL    HW149299   3.793   1.716   8.330
15764SOL    HW249300   3.913   1.803   8.361
15765SOL     OW49301   4.215   1.591   8.378
15765SOL    HW149302   4.279   1.662   8.396
15765SOL    HW249303   4.267   1.530   8.323
15766SOL     OW49304   4.685   0.756   8.669
15766SOL    HW149305   4.753   0.748   8.739
15766SOL    HW249306   4.605   0.736   8.719
15767SOL     OW49307   3.764   0.523   8.555
15767SOL    HW149308   3.850   0.522   8.513
15767SOL    HW249309   3.786   0.536   8.649
15768SOL     OW49310   3.931   0.522   9.175
15768SOL    HW149311   3.987   0.476   9.111
15768SOL    HW249312   3.897   0.597   9.123
15769SOL     OW49313   5.117   0.907   9.101
15769SOL    HW149314   5.137   1.002   9.100
15769SOL    HW249315   5.111   0.887   9.006
15770SOL     OW49316   4.532   0.584   7.837
15770SOL    HW149317   4.541   0.505   7.783
15770SOL    HW249318   4.458   0.631   7.794
15771SOL     OW49319   5.365   0.609   8.643
15771SOL    HW149320   5.348   0.540   8.708
15771SOL    HW249321   5.455   0.586   8.611
15772SOL     OW49322   3.971   1.536   9.171
15772SOL    HW149323   3.959   1.603   9.239
15772SOL    HW249324   3.976   1.454   9.224
15773SOL     OW49325   4.417   0.460   8.713
15773SOL    HW149326   4.366   0.383   8.684
15773SOL    HW249327   4.410   0.519   8.635
15774SOL     OW49328   4.646   1.696   8.918
15774SOL    HW149329   4.631   1.660   8.830
15774SOL    HW249330   4.640   1.793   8.905
15775SOL     OW49331   4.168   0.478   7.646
15775SOL    HW149332   4.229   0.553   7.653
15775SOL    HW249333   4.083   0.525   7.631
15776SOL     OW49334   3.831   1.123   8.915
15776SOL    HW149335   3.841   1.068   8.997
15776SOL    HW249336   3.853   1.060   8.845
15777SOL     OW49337   5.045   1.044   8.682
15777SOL    HW149338   5.061   0.989   8.602
15777SOL    HW249339   4.976   1.104   8.648
15778SOL     OW49340   5.031   0.852   7.742
15778SOL    HW149341   4.948   0.829   7.787
15778SOL    HW249342   5.005   0.853   7.648
15779SOL     OW49343   5.470   1.751   8.575
15779SOL    HW149344   5.544   1.775   8.516
15779SOL    HW249345   5.464   1.654   8.559
15780SOL     OW49346   4.969   1.731   8.559
15780SOL    HW149347   5.057   1.753   8.527
15780SOL    HW249348   4.978   1.635   8.574
15781SOL     OW49349   3.827   1.241   8.481
15781SOL    HW149350   3.801   1.264   8.573
15781SOL    HW249351   3.744   1.206   8.446
15782SOL     OW49352   4.418   1.640   9.183
15782SOL    HW149353   4.377   1.726   9.166
15782SOL    HW249354   4.508   1.651   9.149
15783SOL     OW49355   5.411   0.112   7.949
15783SOL    HW149356   5.486   0.131   7.890
15783SOL    HW249357   5.448   0.048   8.011
15784SOL     OW49358   5.085   1.568   7.927
15784SOL    HW149359   5.148   1.585   7.855
15784SOL    HW249360   5.048   1.656   7.943
15785SOL     OW49361   3.874   1.796   9.275
15785SOL    HW149362   3.831   1.725   9.328
15785SOL    HW249363   3.920   1.844   9.346
15786SOL     OW49364   4.982   0.922   8.129
15786SOL    HW149365   5.062   0.866   8.141
15786SOL    HW249366   5.018   0.996   8.076
15787SOL     OW49367   4.522   1.255   8.871
15787SOL    HW149368   4.497   1.302   8.954
15787SOL    HW249369   4.442   1.272   8.817
15788SOL     OW49370   4.390   1.621   7.594
15788SOL    HW149371   4.406   1.628   7.499
15788SOL    HW249372   4.332   1.541   7.596
15789SOL     OW49373   5.354   1.732   8.844
15789SOL    HW149374   5.394   1.747   8.757
15789SOL    HW249375   5.340   1.823   8.877
15790SOL     OW49376   5.580   0.114   8.403
15790SOL    HW149377   5.611   0.054   8.334
15790SOL    HW249378   5.499   0.154   8.364
15791SOL     OW49379   3.964   0.295   8.141
15791SOL    HW149380   3.871   0.323   8.130
15791SOL    HW249381   3.976   0.307   8.237
15792SOL     OW49382   4.910   1.637   7.478
15792SOL    HW149383   4.921   1.541   7.494
15792SOL    HW249384   4.852   1.639   7.400
15793SOL     OW49385   4.548   0.996   8.822
15793SOL    HW149386   4.590   1.001   8.736
15793SOL    HW249387   4.539   1.090   8.846
15794SOL     OW49388   4.632   0.902   7.716
15794SOL    HW149389   4.706   0.938   7.662
15794SOL    HW249390   4.675   0.831   7.766
15795SOL     OW49391   5.284   1.630   7.490
15795SOL    HW149392   5.188   1.637   7.483
15795SOL    HW249393   5.311   1.633   7.396
15796SOL     OW49394   4.064   1.281   8.935
15796SOL    HW149395   4.056   1.355   8.872
15796SOL    HW249396   3.981   1.233   8.923
15797SOL     OW49397   5.329   1.305   8.710
15797SOL    HW149398   5.379   1.282   8.790
15797SOL    HW249399   5.268   1.374   8.744
15798SOL     OW49400   4.776   1.119   8.173
15798SOL    HW149401   4.700   1.068   8.203
15798SOL    HW249402   4.840   1.050   8.149
15799SOL     OW49403   4.755   0.248   8.422
15799SOL    HW149404   4.757   0.195   8.341
15799SOL    HW249405   4.742   0.179   8.488
15800SOL     OW49406   4.333   1.478   7.935
15800SOL    HW149407   4.386   1.435   7.865
15800SOL    HW249408   4.269   1.529   7.885
15801SOL     OW49409   5.437   0.377   8.833
15801SOL    HW149410   5.492   0.457   8.828
15801SOL    HW249411   5.483   0.317   8.770
15802SOL     OW49412   3.978   1.379   7.721
15802SOL    HW149413   3.880   1.372   7.710
15802SOL    HW249414   3.985   1.403   7.816
15803SOL     OW49415   3.847   0.995   9.146
15803SOL    HW149416   3.777   0.991   9.214
15803SOL    HW249417   3.928   0.970   9.197
15804SOL     OW49418   4.400   0.212   8.929
15804SOL    HW149419   4.478   0.159   8.904
15804SOL    HW249420   4.427   0.245   9.017
15805SOL     OW49421   3.791   0.353   7.484
15805SOL    HW149422   3.702   0.366   7.449
15805SOL    HW249423   3.840   0.422   7.435
15806SOL     OW49424   5.173   0.851   8.839
15806SOL    HW149425   5.131   0.914   8.779
15806SOL    HW249426   5.267   0.872   8.827
15807SOL     OW49427   3.770   0.175   7.767
15807SOL    HW149428   3.763   0.234   7.690
15807SOL    HW249429   3.856   0.132   7.751
15808SOL     OW49430   4.933   1.364   7.563
15808SOL    HW149431   4.849   1.316   7.567
15808SOL    HW249432   4.960   1.362   7.657
15809SOL     OW49433   4.335   0.806   8.881
15809SOL    HW149434   4.388   0.887   8.879
15809SOL    HW249435   4.407   0.740   8.885
15810SOL     OW49436   5.228   1.760   8.418
15810SOL    HW149437   5.264   1.802   8.339
15810SOL    HW249438   5.306   1.754   8.475
15811SOL     OW49439   4.464   0.562   9.129
15811SOL    HW149440   4.507   0.623   9.192
15811SOL    HW249441   4.466   0.477   9.175
15812SOL     OW49442   5.186   1.181   9.074
15812SOL    HW149443   5.176   1.186   9.171
15812SOL    HW249444   5.280   1.204   9.062
15813SOL     OW49445   4.096   1.730   9.010
15813SOL    HW149446   4.011   1.776   8.998
15813SOL    HW249447   4.068   1.645   9.047
15814SOL     OW49448   5.401   0.893   8.677
15814SOL    HW149449   5.375   0.807   8.642
15814SOL    HW249450   5.372   0.955   8.607
15815SOL     OW49451   4.953   0.312   7.903
15815SOL    HW149452   5.008   0.232   7.898
15815SOL    HW249453   4.987   0.357   7.983
15816SOL     OW49454   4.304   0.762   8.100
15816SOL    HW149455   4.346   0.848   8.085
15816SOL    HW249456   4.252   0.747   8.019
15817SOL     OW49457   5.495   0.373   9.093
15817SOL    HW149458   5.471   0.375   8.998
15817SOL    HW249459   5.421   0.320   9.128
15818SOL     OW49460   5.463   0.942   8.942
15818SOL    HW149461   5.464   1.039   8.943
15818SOL    HW249462   5.461   0.921   8.847
15819SOL     OW49463   4.577   1.360   7.477
15819SOL    HW149464   4.552   1.377   7.569
15819SOL    HW249465   4.605   1.446   7.444
15820SOL     OW49466   4.365   1.814   8.368
15820SOL    HW149467   4.355   1.909   8.349
15820SOL    HW249468   4.460   1.802   8.373
15821SOL     OW49469   4.600   0.949   8.297
15821SOL    HW149470   4.659   0.879   8.330
15821SOL    HW249471   4.593   1.008   8.373
15822SOL     OW49472   4.818   1.005   7.550
15822SOL    HW149473   4.791   1.058   7.473
15822SOL    HW249474   4.874   0.938   7.506
15823SOL     OW49475   5.585   1.560   8.296
15823SOL    HW149476   5.499   1.550   8.253
15823SOL    HW249477   5.575   1.504   8.374
15824SOL     OW49478   3.968   1.314   9.320
15824SOL    HW149479   3.888   1.263   9.301
15824SOL    HW249480   3.960   1.325   9.416
15825SOL     OW49481   3.811   1.258   8.106
15825SOL    HW149482   3.800   1.188   8.172
15825SOL    HW249483   3.892   1.232   8.059
15826SOL     OW49484   4.397   1.395   9.062
15826SOL    HW149485   4.321   1.347   9.099
15826SOL    HW249486   4.386   1.483   9.101
15827SOL     OW49487   5.557   0.194   8.669
15827SOL    HW149488   5.534   0.100   8.672
15827SOL    HW249489   5.565   0.207   8.573
15828SOL     OW49490   4.142   0.410   7.961
15828SOL    HW149491   4.188   0.342   7.909
15828SOL    HW249492   4.099   0.362   8.032
15829SOL     OW49493   5.440   1.489   8.537
15829SOL    HW149494   5.357   1.468   8.491
15829SOL    HW249495   5.435   1.428   8.612
15830SOL     OW49496   4.046   0.541   8.740
15830SOL    HW149497   4.098   0.497   8.811
15830SOL    HW249498   4.087   0.506   8.659
15831SOL     OW49499   4.542   1.584   8.127
15831SOL    HW149500   4.533   1.613   8.035
15831SOL    HW249501   4.459   1.537   8.141
15832SOL     OW49502   5.157   0.244   8.556
15832SOL    HW149503   5.181   0.168   8.611
15832SOL    HW249504   5.102   0.298   8.618
15833SOL     OW49505   4.720   0.008   8.609
15833SOL    HW149506   4.675  11.025   8.593
15833SOL    HW249507   4.814  11.083   8.601
15834SOL     OW49508   4.510   1.339   7.762
15834SOL    HW149509   4.478   1.247   7.761
15834SOL    HW249510   4.583   1.335   7.825
15835SOL     OW49511   4.323   1.563   8.718
15835SOL    HW149512   4.326   1.650   8.763
15835SOL    HW249513   4.417   1.554   8.695
15836SOL     OW49514   5.046   0.067   7.614
15836SOL    HW149515   5.042  11.091   7.556
15836SOL    HW249516   4.957   0.064   7.656
15837SOL     OW49517   5.015   0.456   8.122
15837SOL    HW149518   4.961   0.537   8.114
15837SOL    HW249519   5.001   0.431   8.215
15838SOL     OW49520   5.347   0.219   8.322
15838SOL    HW149521   5.277   0.231   8.388
15838SOL    HW249522   5.344   0.305   8.275
15839SOL     OW49523   3.766   1.071   7.760
15839SOL    HW149524   3.859   1.057   7.739
15839SOL    HW249525   3.735   0.979   7.766
15840SOL     OW49526   4.591   1.641   7.778
15840SOL    HW149527   4.519   1.631   7.713
15840SOL    HW249528   4.569   1.725   7.824
15841SOL     OW49529   3.959   0.634   9.441
15841SOL    HW149530   3.865   0.626   9.462
15841SOL    HW249531   3.962   0.613   9.346
15842SOL     OW49532   3.924   0.302  10.299
15842SOL    HW149533   3.956   0.275  10.387
15842SOL    HW249534   3.864   0.227  10.277
15843SOL     OW49535   3.745   0.407   9.953
15843SOL    HW149536   3.691   0.390  10.030
15843SOL    HW249537   3.721   0.336   9.892
15844SOL     OW49538   4.290   1.308  10.462
15844SOL    HW149539   4.196   1.290  10.447
15844SOL    HW249540   4.287   1.387  10.517
15845SOL     OW49541   5.288   1.505  10.013
15845SOL    HW149542   5.246   1.488  10.099
15845SOL    HW249543   5.212   1.511   9.951
15846SOL     OW49544   4.859   0.689  10.000
15846SOL    HW149545   4.893   0.781   9.995
15846SOL    HW249546   4.807   0.695  10.082
15847SOL     OW49547   5.503   0.604   9.540
15847SOL    HW149548   5.484   0.594   9.444
15847SOL    HW249549   5.453   0.529   9.576
15848SOL     OW49550   4.472   1.156  10.346
15848SOL    HW149551   4.402   1.206  10.392
15848SOL    HW249552   4.510   1.227  10.292
15849SOL     OW49553   4.616   0.784  11.099
15849SOL    HW149554   4.601   0.843   0.072
15849SOL    HW249555   4.654   0.845  11.033
15850SOL     OW49556   4.411   1.026   9.971
15850SOL    HW149557   4.473   1.013  10.045
15850SOL    HW249558   4.338   1.076  10.013
15851SOL     OW49559   4.038   1.429  10.381
15851SOL    HW149560   3.968   1.385  10.329
15851SOL    HW249561   4.092   1.476  10.315
15852SOL     OW49562   5.190   1.494  10.659
15852SOL    HW149563   5.249   1.572  10.672
15852SOL    HW249564   5.126   1.507  10.731
15853SOL     OW49565   4.159   0.401  10.815
15853SOL    HW149566   4.232   0.340  10.794
15853SOL    HW249567   4.082   0.344  10.828
15854SOL     OW49568   5.343   0.474  10.074
15854SOL    HW149569   5.284   0.505  10.004
15854SOL    HW249570   5.307   0.523  10.150
15855SOL     OW49571   3.944   1.715   9.787
15855SOL    HW149572   3.975   1.794   9.838
15855SOL    HW249573   4.007   1.715   9.713
15856SOL     OW49574   3.976   1.439   9.848
15856SOL    HW149575   3.970   1.536   9.850
15856SOL    HW249576   3.904   1.413   9.908
15857SOL     OW49577   3.991   1.086  10.199
15857SOL    HW149578   3.998   1.009  10.257
15857SOL    HW249579   3.938   1.147  10.254
15858SOL     OW49580   4.316   1.796  10.727
15858SOL    HW149581   4.243   1.772  10.787
15858SOL    HW249582   4.335   1.889  10.751
15859SOL     OW49583   4.297   0.989   9.431
15859SOL    HW149584   4.346   1.038   9.362
15859SOL    HW249585   4.341   1.022   9.512
15860SOL     OW49586   5.330   0.130  10.789
15860SOL    HW149587   5.357   0.210  10.741
15860SOL    HW249588   5.271   0.164  10.856
15861SOL     OW49589   3.835   0.658   9.878
15861SOL    HW149590   3.811   0.568   9.905
15861SOL    HW249591   3.834   0.708   9.962
15862SOL     OW49592   5.587   1.751   9.638
15862SOL    HW149593   5.646   1.733   9.715
15862SOL    HW249594   5.604   1.847   9.626
15863SOL     OW49595   3.789   1.597   9.435
15863SOL    HW149596   3.772   1.503   9.451
15863SOL    HW249597   3.751   1.639   9.514
15864SOL     OW49598   5.402   0.911   9.916
15864SOL    HW149599   5.495   0.931   9.928
15864SOL    HW249600   5.378   0.970   9.842
15865SOL     OW49601   5.370   1.129   9.746
15865SOL    HW149602   5.462   1.127   9.717
15865SOL    HW249603   5.376   1.185   9.826
15866SOL     OW49604   3.844   0.735  10.915
15866SOL    HW149605   3.939   0.744  10.932
15866SOL    HW249606   3.815   0.827  10.922
15867SOL     OW49607   4.317   1.410  10.067
15867SOL    HW149608   4.281   1.319  10.074
15867SOL    HW249609   4.305   1.428   9.972
15868SOL     OW49610   5.021   1.239  10.734
15868SOL    HW149611   5.041   1.173  10.665
15868SOL    HW249612   5.066   1.203  10.811
15869SOL     OW49613   4.551   0.003   9.833
15869SOL    HW149614   4.588   0.089   9.807
15869SOL    HW249615   4.456   0.014   9.817
15870SOL     OW49616   3.939   0.976  10.604
15870SOL    HW149617   4.018   0.923  10.586
15870SOL    HW249618   3.871   0.931  10.553
15871SOL     OW49619   5.265   0.959   9.484
15871SOL    HW149620   5.188   0.903   9.508
15871SOL    HW249621   5.290   0.994   9.570
15872SOL     OW49622   4.931   1.861  10.883
15872SOL    HW149623   4.928   1.783  10.824
15872SOL    HW249624   4.929   1.819  10.970
15873SOL     OW49625   4.050   0.246   0.047
15873SOL    HW149626   4.111   0.317   0.069
15873SOL    HW249627   3.969   0.296   0.027
15874SOL     OW49628   5.197   1.421  10.268
15874SOL    HW149629   5.130   1.444  10.335
15874SOL    HW249630   5.172   1.330  10.244
15875SOL     OW49631   5.393   1.727   9.895
15875SOL    HW149632   5.364   1.680   9.816
15875SOL    HW249633   5.372   1.661   9.964
15876SOL     OW49634   4.305   0.713   9.580
15876SOL    HW149635   4.309   0.801   9.540
15876SOL    HW249636   4.233   0.721   9.645
15877SOL     OW49637   4.999   0.368  10.245
15877SOL    HW149638   4.912   0.323  10.254
15877SOL    HW249639   5.054   0.316  10.307
15878SOL     OW49640   5.305   1.645   9.623
15878SOL    HW149641   5.371   1.715   9.632
15878SOL    HW249642   5.289   1.645   9.527
15879SOL     OW49643   4.549   0.587  10.764
15879SOL    HW149644   4.513   0.571  10.853
15879SOL    HW249645   4.491   0.532  10.707
15880SOL     OW49646   4.727   0.923  10.879
15880SOL    HW149647   4.757   0.839  10.839
15880SOL    HW249648   4.654   0.949  10.820
15881SOL     OW49649   4.696   0.398  10.535
15881SOL    HW149650   4.608   0.427  10.563
15881SOL    HW249651   4.676   0.338  10.462
15882SOL     OW49652   4.778   0.694   9.725
15882SOL    HW149653   4.791   0.702   9.822
15882SOL    HW249654   4.691   0.650   9.722
15883SOL     OW49655   3.839   0.819  10.099
15883SOL    HW149656   3.910   0.817  10.166
15883SOL    HW249657   3.800   0.907  10.114
15884SOL     OW49658   3.828   1.834  10.879
15884SOL    HW149659   3.824   1.784  10.962
15884SOL    HW249660   3.738   1.833  10.847
15885SOL     OW49661   4.607   0.353   9.533
15885SOL    HW149662   4.661   0.402   9.468
15885SOL    HW249663   4.580   0.276   9.481
15886SOL     OW49664   5.084   1.147   9.878
15886SOL    HW149665   5.159   1.140   9.818
15886SOL    HW249666   5.026   1.207   9.827
15887SOL     OW49667   4.263   0.202  10.183
15887SOL    HW149668   4.290   0.220  10.275
15887SOL    HW249669   4.276   0.286  10.138
15888SOL     OW49670   4.718   1.445   9.778
15888SOL    HW149671   4.671   1.510   9.722
15888SOL    HW249672   4.732   1.496   9.859
15889SOL     OW49673   4.067   1.810  10.164
15889SOL    HW149674   4.112   1.725  10.182
15889SOL    HW249675   4.137   1.875  10.183
15890SOL     OW49676   5.528   1.031  10.173
15890SOL    HW149677   5.456   1.051  10.113
15890SOL    HW249678   5.483   1.029  10.259
15891SOL     OW49679   4.959   1.576  10.795
15891SOL    HW149680   4.947   1.516  10.870
15891SOL    HW249681   4.900   1.535  10.730
15892SOL     OW49682   4.030   0.956   9.559
15892SOL    HW149683   4.108   0.975   9.505
15892SOL    HW249684   4.003   0.868   9.526
15893SOL     OW49685   5.201   0.754  10.024
15893SOL    HW149686   5.209   0.724  10.115
15893SOL    HW249687   5.277   0.815  10.013
15894SOL     OW49688   4.191   1.257  11.039
15894SOL    HW149689   4.163   1.272  10.946
15894SOL    HW249690   4.135   1.182  11.064
15895SOL     OW49691   4.815   1.772   9.550
15895SOL    HW149692   4.743   1.723   9.593
15895SOL    HW249693   4.829   1.722   9.468
15896SOL     OW49694   3.906   0.275  10.801
15896SOL    HW149695   3.834   0.324  10.844
15896SOL    HW249696   3.899   0.189  10.846
15897SOL     OW49697   5.341   1.373   9.403
15897SOL    HW149698   5.287   1.449   9.379
15897SOL    HW249699   5.285   1.299   9.373
15898SOL     OW49700   4.184   1.734   9.630
15898SOL    HW149701   4.233   1.785   9.697
15898SOL    HW249702   4.254   1.702   9.571
15899SOL     OW49703   5.123   0.078   9.750
15899SOL    HW149704   5.124   0.070   9.653
15899SOL    HW249705   5.213   0.104   9.772
15900SOL     OW49706   3.967   1.793  10.537
15900SOL    HW149707   4.032   1.736  10.579
15900SOL    HW249708   3.955   1.753  10.450
15901SOL     OW49709   4.687   1.708  10.189
15901SOL    HW149710   4.763   1.651  10.209
15901SOL    HW249711   4.642   1.656  10.120
15902SOL     OW49712   4.090   0.672   9.764
15902SOL    HW149713   4.115   0.578   9.782
15902SOL    HW249714   3.997   0.673   9.790
15903SOL     OW49715   4.371   0.145   9.401
15903SOL    HW149716   4.416   0.067   9.438
15903SOL    HW249717   4.312   0.105   9.335
15904SOL     OW49718   4.473   0.287  11.044
15904SOL    HW149719   4.535   0.228  11.090
15904SOL    HW249720   4.399   0.288   0.006
15905SOL     OW49721   4.620   1.546  10.504
15905SOL    HW149722   4.607   1.507  10.416
15905SOL    HW249723   4.683   1.485  10.545
15906SOL     OW49724   5.056   0.590  10.729
15906SOL    HW149725   5.107   0.554  10.803
15906SOL    HW249726   5.094   0.679  10.721
15907SOL     OW49727   4.551   1.406  10.261
15907SOL    HW149728   4.637   1.393  10.216
15907SOL    HW249729   4.489   1.411  10.186
15908SOL     OW49730   4.682   0.522  10.221
15908SOL    HW149731   4.645   0.497  10.133
15908SOL    HW249732   4.715   0.436  10.251
15909SOL     OW49733   4.260   0.025   9.803
15909SOL    HW149734   4.175   0.020   9.850
15909SOL    HW249735   4.244   0.100   9.743
15910SOL     OW49736   5.166   1.182   9.337
15910SOL    HW149737   5.185   1.103   9.391
15910SOL    HW249738   5.077   1.207   9.367
15911SOL     OW49739   4.025   0.043   9.526
15911SOL    HW149740   4.085   0.119   9.525
15911SOL    HW249741   4.084  11.071   9.547
15912SOL     OW49742   4.666   0.254   9.790
15912SOL    HW149743   4.637   0.294   9.706
15912SOL    HW249744   4.762   0.264   9.784
15913SOL     OW49745   4.805   0.700  10.753
15913SOL    HW149746   4.733   0.636  10.766
15913SOL    HW249747   4.885   0.644  10.751
15914SOL     OW49748   4.945   1.585  10.122
15914SOL    HW149749   4.951   1.635  10.039
15914SOL    HW249750   5.020   1.620  10.172
15915SOL     OW49751   4.195   1.163  10.044
15915SOL    HW149752   4.118   1.131  10.097
15915SOL    HW249753   4.162   1.147   9.953
15916SOL     OW49754   4.975   1.809   9.913
15916SOL    HW149755   5.021   1.877   9.860
15916SOL    HW249756   4.926   1.861   9.979
15917SOL     OW49757   4.771   0.550   9.314
15917SOL    HW149758   4.722   0.633   9.296
15917SOL    HW249759   4.839   0.578   9.376
15918SOL     OW49760   3.815   0.566  10.705
15918SOL    HW149761   3.909   0.559  10.680
15918SOL    HW249762   3.817   0.633  10.776
15919SOL     OW49763   4.292   0.234  10.468
15919SOL    HW149764   4.329   0.178  10.538
15919SOL    HW249765   4.197   0.228  10.487
15920SOL     OW49766   4.595   0.445   9.979
15920SOL    HW149767   4.550   0.501   9.915
15920SOL    HW249768   4.620   0.368   9.925
15921SOL     OW49769   4.728   0.003  10.091
15921SOL    HW149770   4.693   0.034  10.007
15921SOL    HW249771   4.695  11.013  10.094
15922SOL     OW49772   5.142   1.162  10.200
15922SOL    HW149773   5.083   1.088  10.221
15922SOL    HW249774   5.135   1.164  10.103
15923SOL     OW49775   5.210   0.600  10.271
15923SOL    HW149776   5.144   0.529  10.285
15923SOL    HW249777   5.264   0.597  10.352
15924SOL     OW49778   5.561   0.811   9.688
15924SOL    HW149779   5.657   0.806   9.678
15924SOL    HW249780   5.531   0.742   9.625
15925SOL     OW49781   4.226   1.413   9.438
15925SOL    HW149782   4.141   1.409   9.486
15925SOL    HW249783   4.210   1.354   9.364
15926SOL     OW49784   5.412   1.268   9.968
15926SOL    HW149785   5.509   1.279   9.978
15926SOL    HW249786   5.376   1.357   9.989
15927SOL     OW49787   5.132   0.593   9.373
15927SOL    HW149788   5.080   0.567   9.452
15927SOL    HW249789   5.217   0.551   9.388
15928SOL     OW49790   4.231   0.242   9.617
15928SOL    HW149791   4.293   0.216   9.546
15928SOL    HW249792   4.203   0.330   9.585
15929SOL     OW49793   5.480   1.218  10.865
15929SOL    HW149794   5.573   1.193  10.877
15929SOL    HW249795   5.483   1.311  10.893
15930SOL     OW49796   4.771   1.383  10.690
15930SOL    HW149797   4.694   1.330  10.716
15930SOL    HW249798   4.843   1.317  10.694
15931SOL     OW49799   4.846   1.249  10.421
15931SOL    HW149800   4.759   1.239  10.461
15931SOL    HW249801   4.824   1.281  10.331
15932SOL     OW49802   5.349   1.089  10.386
15932SOL    HW149803   5.359   1.157  10.456
15932SOL    HW249804   5.276   1.129  10.336
15933SOL     OW49805   4.603   0.101  10.693
15933SOL    HW149806   4.642   0.079  10.606
15933SOL    HW249807   4.682   0.138  10.738
15934SOL     OW49808   4.441   1.068   9.661
15934SOL    HW149809   4.429   1.045   9.754
15934SOL    HW249810   4.515   1.009   9.635
15935SOL     OW49811   4.161   0.813  10.585
15935SOL    HW149812   4.235   0.808  10.649
15935SOL    HW249813   4.125   0.722  10.592
15936SOL     OW49814   4.979   0.358  10.601
15936SOL    HW149815   5.000   0.447  10.636
15936SOL    HW249816   4.897   0.374  10.552
15937SOL     OW49817   3.789   1.564  10.644
15937SOL    HW149818   3.774   1.654  10.613
15937SOL    HW249819   3.887   1.558  10.647
15938SOL     OW49820   4.092   1.120   9.802
15938SOL    HW149821   4.102   1.187   9.733
15938SOL    HW249822   4.070   1.040   9.752
15939SOL     OW49823   4.252   0.552  10.139
15939SOL    HW149824   4.281   0.620  10.075
15939SOL    HW249825   4.319   0.557  10.208
15940SOL     OW49826   4.950   1.320   9.705
15940SOL    HW149827   4.997   1.395   9.745
15940SOL    HW249828   4.858   1.340   9.730
15941SOL     OW49829   5.010   1.466  10.468
15941SOL    HW149830   5.069   1.460  10.546
15941SOL    HW249831   4.957   1.384  10.475
15942SOL     OW49832   5.309   0.626   9.784
15942SOL    HW149833   5.256   0.680   9.846
15942SOL    HW249834   5.332   0.691   9.717
15943SOL     OW49835   4.062   1.502  10.632
15943SOL    HW149836   4.050   1.474  10.538
15943SOL    HW249837   4.157   1.523  10.633
15944SOL     OW49838   4.167   0.712  10.924
15944SOL    HW149839   4.238   0.750  10.869
15944SOL    HW249840   4.169   0.619  10.899
15945SOL     OW49841   5.333   0.762  11.001
15945SOL    HW149842   5.282   0.835  11.037
15945SOL    HW249843   5.393   0.809  10.940
15946SOL     OW49844   4.284   0.886  10.354
15946SOL    HW149845   4.333   0.969  10.357
15946SOL    HW249846   4.246   0.879  10.443
15947SOL     OW49847   5.058   0.863  10.336
15947SOL    HW149848   4.980   0.827  10.292
15947SOL    HW249849   5.116   0.786  10.342
15948SOL     OW49850   4.954   0.526   9.572
15948SOL    HW149851   4.964   0.451   9.633
15948SOL    HW249852   4.888   0.580   9.619
15949SOL     OW49853   4.010   0.212  10.544
15949SOL    HW149854   3.969   0.245  10.626
15949SOL    HW249855   3.988   0.118  10.547
15950SOL     OW49856   3.756   1.284  10.595
15950SOL    HW149857   3.797   1.237  10.671
15950SOL    HW249858   3.763   1.378  10.622
15951SOL     OW49859   4.436   0.615  10.336
15951SOL    HW149860   4.525   0.602  10.299
15951SOL    HW249861   4.413   0.707  10.314
15952SOL     OW49862   4.011   0.023   9.932
15952SOL    HW149863   3.999   0.119   9.940
15952SOL    HW249864   4.019  -0.001  10.026
15953SOL     OW49865   5.328   0.389   9.654
15953SOL    HW149866   5.346   0.322   9.720
15953SOL    HW249867   5.311   0.469   9.709
15954SOL     OW49868   4.793   0.762  10.267
15954SOL    HW149869   4.768   0.780  10.360
15954SOL    HW249870   4.759   0.670  10.257
15955SOL     OW49871   4.715   1.551  10.970
15955SOL    HW149872   4.697   1.612  10.895
15955SOL    HW249873   4.690   1.466  10.932
15956SOL     OW49874   5.582   1.479  10.906
15956SOL    HW149875   5.612   1.526  10.827
15956SOL    HW249876   5.642   1.511  10.975
15957SOL     OW49877   4.090   0.905  11.079
15957SOL    HW149878   4.166   0.918   0.036
15957SOL    HW249879   4.120   0.827  11.026
15958SOL     OW49880   5.233   0.263   9.428
15958SOL    HW149881   5.157   0.209   9.458
15958SOL    HW249882   5.264   0.306   9.510
15959SOL     OW49883   5.009   0.830   9.329
15959SOL    HW149884   5.061   0.748   9.342
15959SOL    HW249885   5.038   0.856   9.240
15960SOL     OW49886   4.790   1.356  10.168
15960SOL    HW149887   4.793   1.282  10.103
15960SOL    HW249888   4.857   1.419  10.135
15961SOL     OW49889   4.018   0.820  10.312
15961SOL    HW149890   4.114   0.837  10.313
15961SOL    HW249891   4.015   0.724  10.324
15962SOL     OW49892   4.053   0.539  10.309
15962SOL    HW149893   4.014   0.452  10.291
15962SOL    HW249894   4.123   0.545  10.240
15963SOL     OW49895   4.838   0.216  10.786
15963SOL    HW149896   4.864   0.266  10.864
15963SOL    HW249897   4.880   0.266  10.714
15964SOL     OW49898   3.730   1.328   9.505
15964SOL    HW149899   3.637   1.345   9.477
15964SOL    HW249900   3.725   1.237   9.539
15965SOL     OW49901   3.817   1.789  10.245
15965SOL    HW149902   3.791   1.713  10.189
15965SOL    HW249903   3.909   1.805  10.216
15966SOL     OW49904   4.211   1.588  10.249
15966SOL    HW149905   4.284   1.641  10.286
15966SOL    HW249906   4.258   1.526  10.190
15967SOL     OW49907   4.692   0.779  10.523
15967SOL    HW149908   4.755   0.753  10.594
15967SOL    HW249909   4.608   0.753  10.563
15968SOL     OW49910   3.728   0.523  10.459
15968SOL    HW149911   3.805   0.508  10.403
15968SOL    HW249912   3.768   0.539  10.547
15969SOL     OW49913   4.538   0.586   9.688
15969SOL    HW149914   4.547   0.509   9.630
15969SOL    HW249915   4.457   0.628   9.654
15970SOL     OW49916   5.377   0.613  10.481
15970SOL    HW149917   5.363   0.543  10.546
15970SOL    HW249918   5.470   0.596  10.455
15971SOL     OW49919   3.967   1.542  11.033
15971SOL    HW149920   3.916   1.571   0.010
15971SOL    HW249921   4.008   1.460  11.065
15972SOL     OW49922   4.416   0.467  10.565
15972SOL    HW149923   4.366   0.388  10.536
15972SOL    HW249924   4.408   0.525  10.486
15973SOL     OW49925   4.659   1.696  10.743
15973SOL    HW149926   4.641   1.655  10.657
15973SOL    HW249927   4.638   1.790  10.730
15974SOL     OW49928   4.163   0.475   9.500
15974SOL    HW149929   4.228   0.546   9.517
15974SOL    HW249930   4.082   0.528   9.490
15975SOL     OW49931   3.890   1.149  10.792
15975SOL    HW149932   3.881   1.093  10.872
15975SOL    HW249933   3.915   1.082  10.723
15976SOL     OW49934   5.029   1.053  10.538
15976SOL    HW149935   5.049   0.989  10.468
15976SOL    HW249936   4.967   1.114  10.493
15977SOL     OW49937   5.034   0.846   9.601
15977SOL    HW149938   4.956   0.815   9.648
15977SOL    HW249939   5.006   0.846   9.508
15978SOL     OW49940   5.474   1.758  10.435
15978SOL    HW149941   5.552   1.781  10.381
15978SOL    HW249942   5.474   1.660  10.429
15979SOL     OW49943   4.974   1.736  10.454
15979SOL    HW149944   5.059   1.750  10.409
15979SOL    HW249945   4.977   1.639  10.468
15980SOL     OW49946   3.827   1.244  10.341
15980SOL    HW149947   3.802   1.258  10.435
15980SOL    HW249948   3.743   1.217  10.303
15981SOL     OW49949   5.430   0.115   9.798
15981SOL    HW149950   5.510   0.103   9.745
15981SOL    HW249951   5.444   0.054   9.873
15982SOL     OW49952   5.091   1.582   9.801
15982SOL    HW149953   5.145   1.602   9.722
15982SOL    HW249954   5.045   1.667   9.817
15983SOL     OW49955   4.979   0.927   9.999
15983SOL    HW149956   5.057   0.870  10.007
15983SOL    HW249957   5.012   0.999   9.943
15984SOL     OW49958   4.526   1.254  10.745
15984SOL    HW149959   4.501   1.297  10.829
15984SOL    HW249960   4.453   1.281  10.687
15985SOL     OW49961   4.396   1.615   9.464
15985SOL    HW149962   4.408   1.624   9.368
15985SOL    HW249963   4.338   1.535   9.467
15986SOL     OW49964   5.347   1.709  10.681
15986SOL    HW149965   5.398   1.729  10.600
15986SOL    HW249966   5.331   1.797  10.718
15987SOL     OW49967   5.576   0.118  10.260
15987SOL    HW149968   5.588   0.044  10.199
15987SOL    HW249969   5.493   0.158  10.229
15988SOL     OW49970   3.977   0.293  10.008
15988SOL    HW149971   3.899   0.349   9.987
15988SOL    HW249972   3.981   0.299  10.105
15989SOL     OW49973   4.916   1.630   9.337
15989SOL    HW149974   4.918   1.534   9.351
15989SOL    HW249975   4.856   1.640   9.260
15990SOL     OW49976   4.531   0.987  10.705
15990SOL    HW149977   4.567   0.980  10.616
15990SOL    HW249978   4.541   1.082  10.726
15991SOL     OW49979   4.636   0.912   9.587
15991SOL    HW149980   4.708   0.943   9.527
15991SOL    HW249981   4.677   0.837   9.633
15992SOL     OW49982   5.286   1.642   9.351
15992SOL    HW149983   5.189   1.649   9.351
15992SOL    HW249984   5.304   1.640   9.254
15993SOL     OW49985   4.105   1.296  10.795
15993SOL    HW149986   4.078   1.371  10.738
15993SOL    HW249987   4.025   1.240  10.791
15994SOL     OW49988   5.343   1.288  10.577
15994SOL    HW149989   5.392   1.265  10.657
15994SOL    HW249990   5.279   1.353  10.611
15995SOL     OW49991   4.758   1.129  10.026
15995SOL    HW149992   4.692   1.070  10.065
15995SOL    HW249993   4.824   1.066   9.995
15996SOL     OW49994   4.759   0.238  10.280
15996SOL    HW149995   4.740   0.196  10.195
15996SOL    HW249996   4.749   0.162  10.340
15997SOL     OW49997   4.339   1.486   9.802
15997SOL    HW149998   4.388   1.439   9.733
15997SOL    HW249999   4.264   1.521   9.753
15998SOL     OW50000   5.432   0.392  10.686
15998SOL    HW150001   5.503   0.458  10.689
15998SOL    HW250002   5.466   0.331  10.617
15999SOL     OW50003   3.979   1.392   9.585
15999SOL    HW150004   3.882   1.387   9.572
15999SOL    HW250005   3.985   1.407   9.681
16000SOL     OW50006   3.858   1.017  11.018
16000SOL    HW150007   3.801   1.007  11.095
16000SOL    HW250008   3.943   0.979  11.050
16001SOL     OW50009   4.379   0.237  10.773
16001SOL    HW150010   4.458   0.193  10.738
16001SOL    HW250011   4.406   0.254  10.865
16002SOL     OW50012   3.797   0.353   9.345
16002SOL    HW150013   3.706   0.367   9.319
16002SOL    HW250014   3.842   0.424   9.295
16003SOL     OW50015   5.161   0.854  10.728
16003SOL    HW150016   5.118   0.925  10.678
16003SOL    HW250017   5.254   0.866  10.703
16004SOL     OW50018   3.759   0.168   9.622
16004SOL    HW150019   3.757   0.234   9.551
16004SOL    HW250020   3.847   0.130   9.611
16005SOL     OW50021   4.925   1.357   9.425
16005SOL    HW150022   4.836   1.320   9.423
16005SOL    HW250023   4.948   1.351   9.520
16006SOL     OW50024   4.358   0.794  10.761
16006SOL    HW150025   4.413   0.874  10.749
16006SOL    HW250026   4.426   0.725  10.769
16007SOL     OW50027   5.232   1.753  10.296
16007SOL    HW150028   5.269   1.801  10.221
16007SOL    HW250029   5.308   1.750  10.357
16008SOL     OW50030   4.440   0.591  11.015
16008SOL    HW150031   4.495   0.654  11.064
16008SOL    HW250032   4.467   0.505  11.049
16009SOL     OW50033   4.090   1.720  10.868
16009SOL    HW150034   4.013   1.776  10.853
16009SOL    HW250035   4.055   1.654  10.931
16010SOL     OW50036   5.399   0.893  10.570
16010SOL    HW150037   5.386   0.807  10.528
16010SOL    HW250038   5.378   0.957  10.499
16011SOL     OW50039   4.959   0.304   9.750
16011SOL    HW150040   5.009   0.221   9.753
16011SOL    HW250041   4.980   0.345   9.836
16012SOL     OW50042   4.317   0.751   9.962
16012SOL    HW150043   4.352   0.842   9.957
16012SOL    HW250044   4.241   0.755   9.903
16013SOL     OW50045   5.499   0.342  10.943
16013SOL    HW150046   5.463   0.363  10.855
16013SOL    HW250047   5.420   0.322  10.994
16014SOL     OW50048   5.478   0.936  10.827
16014SOL    HW150049   5.470   1.032  10.837
16014SOL    HW250050   5.462   0.924  10.731
16015SOL     OW50051   4.575   1.360   9.345
16015SOL    HW150052   4.546   1.378   9.436
16015SOL    HW250053   4.602   1.447   9.311
16016SOL     OW50054   4.402   1.798  10.275
16016SOL    HW150055   4.379   1.887  10.241
16016SOL    HW250056   4.482   1.777  10.226
16017SOL     OW50057   4.600   0.959  10.174
16017SOL    HW150058   4.652   0.884  10.208
16017SOL    HW250059   4.577   1.007  10.255
16018SOL     OW50060   4.813   0.989   9.406
16018SOL    HW150061   4.786   1.048   9.334
16018SOL    HW250062   4.876   0.930   9.362
16019SOL     OW50063   5.559   1.543  10.168
16019SOL    HW150064   5.473   1.538  10.125
16019SOL    HW250065   5.540   1.505  10.255
16020SOL     OW50066   3.814   1.260   9.987
16020SOL    HW150067   3.827   1.210  10.069
16020SOL    HW250068   3.890   1.232   9.935
16021SOL     OW50069   4.411   1.415  10.936
16021SOL    HW150070   4.345   1.355  10.977
16021SOL    HW250071   4.356   1.489  10.908
16022SOL     OW50072   5.515   0.192  10.531
16022SOL    HW150073   5.503   0.095  10.542
16022SOL    HW250074   5.550   0.195  10.441
16023SOL     OW50075   4.140   0.410   9.820
16023SOL    HW150076   4.176   0.335   9.770
16023SOL    HW250077   4.109   0.369   9.902
16024SOL     OW50078   5.441   1.492  10.410
16024SOL    HW150079   5.357   1.456  10.376
16024SOL    HW250080   5.451   1.440  10.492
16025SOL     OW50081   4.068   0.559  10.596
16025SOL    HW150082   4.116   0.494  10.651
16025SOL    HW250083   4.078   0.526  10.505
16026SOL     OW50084   4.546   1.592   9.988
16026SOL    HW150085   4.540   1.623   9.896
16026SOL    HW250086   4.463   1.542   9.997
16027SOL     OW50087   5.159   0.257  10.437
16027SOL    HW150088   5.200   0.189  10.492
16027SOL    HW250089   5.096   0.297  10.501
16028SOL     OW50090   4.717   0.012  10.463
16028SOL    HW150091   4.670  11.028  10.464
16028SOL    HW250092   4.811  11.085  10.469
16029SOL     OW50093   4.512   1.339   9.622
16029SOL    HW150094   4.482   1.247   9.623
16029SOL    HW250095   4.591   1.335   9.678
16030SOL     OW50096   4.329   1.558  10.604
16030SOL    HW150097   4.333   1.646  10.647
16030SOL    HW250098   4.409   1.562  10.549
16031SOL     OW50099   5.056   0.072   9.482
16031SOL    HW150100   5.060  -0.001   9.418
16031SOL    HW250101   4.966   0.061   9.518
16032SOL     OW50102   4.997   0.442   9.978
16032SOL    HW150103   4.953   0.529   9.973
16032SOL    HW250104   4.996   0.425  10.074
16033SOL     OW50105   5.344   0.220  10.181
16033SOL    HW150106   5.269   0.219  10.243
16033SOL    HW250107   5.338   0.311  10.146
16034SOL     OW50108   3.768   1.074   9.632
16034SOL    HW150109   3.862   1.069   9.611
16034SOL    HW250110   3.745   0.979   9.637
16035SOL     OW50111   4.599   1.648   9.639
16035SOL    HW150112   4.523   1.634   9.580
16035SOL    HW250113   4.577   1.731   9.687
16036SOL     OW50114   3.973   2.508   0.146
16036SOL    HW150115   3.884   2.481   0.172
16036SOL    HW250116   3.984   2.476   0.057
16037SOL     OW50117   3.950   2.146   1.007
16037SOL    HW150118   3.976   2.120   1.097
16037SOL    HW250119   3.865   2.099   0.997
16038SOL     OW50120   3.729   2.266   0.641
16038SOL    HW150121   3.647   2.285   0.691
16038SOL    HW250122   3.703   2.188   0.591
16039SOL     OW50123   4.298   3.160   1.190
16039SOL    HW150124   4.209   3.155   1.155
16039SOL    HW250125   4.302   3.252   1.223
16040SOL     OW50126   5.270   3.378   0.710
16040SOL    HW150127   5.233   3.351   0.796
16040SOL    HW250128   5.193   3.376   0.650
16041SOL     OW50129   4.850   2.552   0.709
16041SOL    HW150130   4.888   2.638   0.685
16041SOL    HW250131   4.819   2.569   0.799
16042SOL     OW50132   5.500   2.474   0.238
16042SOL    HW150133   5.526   2.442   0.151
16042SOL    HW250134   5.448   2.400   0.272
16043SOL     OW50135   4.454   3.023   1.018
16043SOL    HW150136   4.397   3.070   1.083
16043SOL    HW250137   4.495   3.100   0.975
16044SOL     OW50138   4.609   2.609   1.794
16044SOL    HW150139   4.578   2.675   1.857
16044SOL    HW250140   4.630   2.663   1.715
16045SOL     OW50141   4.412   2.869   0.637
16045SOL    HW150142   4.477   2.855   0.707
16045SOL    HW250143   4.341   2.919   0.683
16046SOL     OW50144   4.420   3.016   1.804
16046SOL    HW150145   4.467   3.099   1.822
16046SOL    HW250146   4.331   3.048   1.781
16047SOL     OW50147   4.040   3.287   1.077
16047SOL    HW150148   3.968   3.240   1.030
16047SOL    HW250149   4.087   3.336   1.007
16048SOL     OW50150   5.195   3.371   1.367
16048SOL    HW150151   5.251   3.449   1.384
16048SOL    HW250152   5.122   3.384   1.430
16049SOL     OW50153   4.151   2.262   1.530
16049SOL    HW150154   4.232   2.212   1.515
16049SOL    HW250155   4.081   2.200   1.506
16050SOL     OW50156   5.332   2.310   0.733
16050SOL    HW150157   5.253   2.321   0.678
16050SOL    HW250158   5.334   2.394   0.780
16051SOL     OW50159   3.956   3.583   0.504
16051SOL    HW150160   3.998   3.665   0.535
16051SOL    HW250161   3.991   3.576   0.414
16052SOL     OW50162   4.845   3.208   1.664
16052SOL    HW150163   4.893   3.207   1.747
16052SOL    HW250164   4.801   3.121   1.665
16053SOL     OW50165   3.970   3.289   0.528
16053SOL    HW150166   3.969   3.384   0.544
16053SOL    HW250167   3.902   3.256   0.590
16054SOL     OW50168   3.990   2.949   0.908
16054SOL    HW150169   3.988   2.873   0.967
16054SOL    HW250170   3.936   3.014   0.957
16055SOL     OW50171   4.331   3.647   1.419
16055SOL    HW150172   4.252   3.625   1.471
16055SOL    HW250173   4.350   3.738   1.449
16056SOL     OW50174   4.305   2.843   0.156
16056SOL    HW150175   4.350   2.901   0.092
16056SOL    HW250176   4.345   2.874   0.240
16057SOL     OW50177   5.336   1.982   1.505
16057SOL    HW150178   5.336   2.061   1.449
16057SOL    HW250179   5.342   2.020   1.594
16058SOL     OW50180   3.840   2.525   0.559
16058SOL    HW150181   3.811   2.435   0.581
16058SOL    HW250182   3.834   2.571   0.646
16059SOL     OW50183   5.571   3.592   0.365
16059SOL    HW150184   5.635   3.573   0.437
16059SOL    HW250185   5.588   3.686   0.348
16060SOL     OW50186   3.792   3.462   0.124
16060SOL    HW150187   3.770   3.371   0.151
16060SOL    HW250188   3.760   3.512   0.201
16061SOL     OW50189   5.429   2.781   0.615
16061SOL    HW150190   5.513   2.751   0.578
16061SOL    HW250191   5.396   2.839   0.545
16062SOL     OW50192   5.356   2.988   0.439
16062SOL    HW150193   5.426   3.021   0.381
16062SOL    HW250194   5.367   3.045   0.518
16063SOL     OW50195   3.840   2.602   1.578
16063SOL    HW150196   3.928   2.638   1.593
16063SOL    HW250197   3.784   2.676   1.603
16064SOL     OW50198   4.307   3.265   0.739
16064SOL    HW150199   4.279   3.172   0.747
16064SOL    HW250200   4.298   3.280   0.643
16065SOL     OW50201   5.009   3.092   1.421
16065SOL    HW150202   5.039   3.018   1.365
16065SOL    HW250203   5.061   3.078   1.502
16066SOL     OW50204   4.558   1.868   0.467
16066SOL    HW150205   4.582   1.962   0.477
16066SOL    HW250206   4.463   1.868   0.493
16067SOL     OW50207   3.895   2.844   1.263
16067SOL    HW150208   3.986   2.811   1.261
16067SOL    HW250209   3.846   2.774   1.217
16068SOL     OW50210   5.262   2.842   0.208
16068SOL    HW150211   5.187   2.791   0.243
16068SOL    HW250212   5.298   2.881   0.289
16069SOL     OW50213   4.893   3.667   1.616
16069SOL    HW150214   4.900   3.734   1.546
16069SOL    HW250215   4.912   3.586   1.566
16070SOL     OW50216   4.072   2.094   1.810
16070SOL    HW150217   4.118   2.177   1.793
16070SOL    HW250218   3.984   2.126   1.837
16071SOL     OW50219   5.189   3.293   0.964
16071SOL    HW150220   5.122   3.311   1.033
16071SOL    HW250221   5.163   3.203   0.936
16072SOL     OW50222   5.384   3.606   0.605
16072SOL    HW150223   5.387   3.571   0.515
16072SOL    HW250224   5.352   3.528   0.654
16073SOL     OW50225   4.313   2.566   0.259
16073SOL    HW150226   4.324   2.655   0.222
16073SOL    HW250227   4.252   2.580   0.334
16074SOL     OW50228   4.996   2.191   0.913
16074SOL    HW150229   4.907   2.162   0.938
16074SOL    HW250230   5.052   2.149   0.981
16075SOL     OW50231   5.293   3.507   0.315
16075SOL    HW150232   5.385   3.534   0.308
16075SOL    HW250233   5.269   3.494   0.221
16076SOL     OW50234   4.527   2.489   1.463
16076SOL    HW150235   4.508   2.451   1.551
16076SOL    HW250236   4.481   2.425   1.405
16077SOL     OW50237   5.121   2.344   1.669
16077SOL    HW150238   5.128   2.405   1.745
16077SOL    HW250239   5.174   2.267   1.699
16078SOL     OW50240   4.685   2.746   1.579
16078SOL    HW150241   4.724   2.664   1.542
16078SOL    HW250242   4.641   2.784   1.500
16079SOL     OW50243   4.686   2.262   1.243
16079SOL    HW150244   4.593   2.277   1.263
16079SOL    HW250245   4.684   2.216   1.158
16080SOL     OW50246   4.761   2.549   0.412
16080SOL    HW150247   4.769   2.567   0.507
16080SOL    HW250248   4.678   2.498   0.409
16081SOL     OW50249   3.831   2.672   0.781
16081SOL    HW150250   3.899   2.668   0.850
16081SOL    HW250251   3.778   2.748   0.810
16082SOL     OW50252   3.832   3.701   1.565
16082SOL    HW150253   3.840   3.685   1.662
16082SOL    HW250254   3.736   3.700   1.552
16083SOL     OW50255   4.619   2.242   0.210
16083SOL    HW150256   4.662   2.292   0.137
16083SOL    HW250257   4.628   2.150   0.178
16084SOL     OW50258   5.438   2.462   1.840
16084SOL    HW150259   5.405   2.537   1.785
16084SOL    HW250260   5.458   2.397   1.772
16085SOL     OW50261   5.087   3.014   0.567
16085SOL    HW150262   5.166   2.998   0.514
16085SOL    HW250263   5.038   3.077   0.511
16086SOL     OW50264   4.276   2.067   0.902
16086SOL    HW150265   4.285   2.084   0.997
16086SOL    HW250266   4.270   2.156   0.864
16087SOL     OW50267   4.712   3.287   0.477
16087SOL    HW150268   4.675   3.362   0.424
16087SOL    HW250269   4.726   3.330   0.562
16088SOL     OW50270   4.067   3.667   0.853
16088SOL    HW150271   4.110   3.581   0.867
16088SOL    HW250272   4.140   3.728   0.875
16089SOL     OW50273   5.538   2.911   0.878
16089SOL    HW150274   5.487   2.892   0.798
16089SOL    HW250275   5.471   2.903   0.949
16090SOL     OW50276   4.946   3.425   1.489
16090SOL    HW150277   4.922   3.364   1.560
16090SOL    HW250278   4.904   3.382   1.413
16091SOL     OW50279   4.045   2.828   0.274
16091SOL    HW150280   4.132   2.819   0.232
16091SOL    HW250281   4.002   2.743   0.255
16092SOL     OW50282   5.202   2.614   0.709
16092SOL    HW150283   5.190   2.583   0.800
16092SOL    HW250284   5.282   2.667   0.714
16093SOL     OW50285   4.183   3.136   1.723
16093SOL    HW150286   4.143   3.141   1.632
16093SOL    HW250287   4.102   3.142   1.776
16094SOL     OW50288   4.814   3.626   0.212
16094SOL    HW150289   4.768   3.569   0.276
16094SOL    HW250290   4.847   3.562   0.147
16095SOL     OW50291   3.896   2.145   1.500
16095SOL    HW150292   3.826   2.205   1.529
16095SOL    HW250293   3.869   2.060   1.538
16096SOL     OW50294   5.341   3.218   0.102
16096SOL    HW150295   5.300   3.300   0.070
16096SOL    HW250296   5.290   3.149   0.056
16097SOL     OW50297   4.179   3.606   0.304
16097SOL    HW150298   4.223   3.643   0.382
16097SOL    HW250299   4.253   3.595   0.243
16098SOL     OW50300   5.139   1.959   0.460
16098SOL    HW150301   5.142   1.921   0.371
16098SOL    HW250302   5.233   1.980   0.476
16099SOL     OW50303   3.972   3.659   1.228
16099SOL    HW150304   4.022   3.589   1.271
16099SOL    HW250305   3.961   3.625   1.138
16100SOL     OW50306   4.677   3.563   0.883
16100SOL    HW150307   4.762   3.517   0.892
16100SOL    HW250308   4.633   3.509   0.814
16101SOL     OW50309   4.125   2.546   0.465
16101SOL    HW150310   4.133   2.449   0.476
16101SOL    HW250311   4.034   2.560   0.497
16102SOL     OW50312   5.265   2.123   1.732
16102SOL    HW150313   5.262   2.124   1.831
16102SOL    HW250314   5.200   2.054   1.713
16103SOL     OW50315   4.349   1.977   0.101
16103SOL    HW150316   4.434   1.941   0.130
16103SOL    HW250317   4.327   1.927   0.022
16104SOL     OW50318   4.501   2.129   1.738
16104SOL    HW150319   4.576   2.066   1.744
16104SOL    HW250320   4.445   2.100   1.811
16105SOL     OW50321   4.606   3.408   1.193
16105SOL    HW150322   4.598   3.383   1.100
16105SOL    HW250323   4.669   3.343   1.227
16106SOL     OW50324   5.058   2.453   1.430
16106SOL    HW150325   5.099   2.422   1.513
16106SOL    HW250326   5.105   2.537   1.412
16107SOL     OW50327   4.531   3.267   0.930
16107SOL    HW150328   4.619   3.259   0.888
16107SOL    HW250329   4.471   3.276   0.854
16108SOL     OW50330   4.670   2.372   0.907
16108SOL    HW150331   4.648   2.357   0.812
16108SOL    HW250332   4.701   2.285   0.934
16109SOL     OW50333   4.293   1.905   0.500
16109SOL    HW150334   4.217   1.918   0.559
16109SOL    HW250335   4.282   1.984   0.442
16110SOL     OW50336   5.166   3.029   0.018
16110SOL    HW150337   5.197   2.963   0.082
16110SOL    HW250338   5.086   3.064   0.059
16111SOL     OW50339   4.004   1.930   0.216
16111SOL    HW150340   4.041   1.979   0.141
16111SOL    HW250341   4.074   1.866   0.235
16112SOL     OW50342   4.664   2.121   0.467
16112SOL    HW150343   4.648   2.169   0.384
16112SOL    HW250344   4.761   2.130   0.476
16113SOL     OW50345   4.808   2.534   1.475
16113SOL    HW150346   4.752   2.456   1.469
16113SOL    HW250347   4.899   2.498   1.471
16114SOL     OW50348   4.960   3.449   0.792
16114SOL    HW150349   4.964   3.512   0.718
16114SOL    HW250350   5.033   3.478   0.849
16115SOL     OW50351   4.201   3.007   0.739
16115SOL    HW150352   4.129   2.983   0.801
16115SOL    HW250353   4.156   2.991   0.653
16116SOL     OW50354   4.966   3.668   0.619
16116SOL    HW150355   5.018   3.732   0.566
16116SOL    HW250356   4.929   3.724   0.688
16117SOL     OW50357   4.756   2.383   0.023
16117SOL    HW150358   4.715   2.472   0.021
16117SOL    HW250359   4.843   2.403   0.059
16118SOL     OW50360   3.775   2.421   1.394
16118SOL    HW150361   3.869   2.414   1.373
16118SOL    HW250362   3.776   2.495   1.458
16119SOL     OW50363   4.289   2.105   1.175
16119SOL    HW150364   4.336   2.034   1.220
16119SOL    HW250365   4.197   2.089   1.203
16120SOL     OW50366   4.609   2.306   0.659
16120SOL    HW150367   4.568   2.366   0.595
16120SOL    HW250368   4.622   2.227   0.603
16121SOL     OW50369   4.739   1.941   0.760
16121SOL    HW150370   4.700   1.930   0.673
16121SOL    HW250371   4.714   1.859   0.807
16122SOL     OW50372   5.147   3.045   0.880
16122SOL    HW150373   5.076   2.979   0.885
16122SOL    HW250374   5.165   3.044   0.784
16123SOL     OW50375   5.189   2.460   0.980
16123SOL    HW150376   5.145   2.374   0.990
16123SOL    HW250377   5.261   2.457   1.044
16124SOL     OW50378   5.588   2.696   0.376
16124SOL    HW150379   5.638   2.638   0.437
16124SOL    HW250380   5.553   2.629   0.314
16125SOL     OW50381   4.217   3.306   0.137
16125SOL    HW150382   4.143   3.280   0.195
16125SOL    HW250383   4.214   3.238   0.067
16126SOL     OW50384   5.397   3.140   0.665
16126SOL    HW150385   5.494   3.150   0.669
16126SOL    HW250386   5.364   3.230   0.680
16127SOL     OW50387   5.091   2.455   0.073
16127SOL    HW150388   5.061   2.423   0.162
16127SOL    HW250389   5.167   2.399   0.056
16128SOL     OW50390   4.249   2.095   0.320
16128SOL    HW150391   4.284   2.052   0.239
16128SOL    HW250392   4.212   2.178   0.282
16129SOL     OW50393   5.463   3.090   1.577
16129SOL    HW150394   5.533   3.044   1.625
16129SOL    HW250395   5.489   3.184   1.586
16130SOL     OW50396   4.794   3.229   1.340
16130SOL    HW150397   4.716   3.193   1.385
16130SOL    HW250398   4.866   3.177   1.381
16131SOL     OW50399   5.324   3.463   1.639
16131SOL    HW150400   5.334   3.507   1.553
16131SOL    HW250401   5.404   3.409   1.644
16132SOL     OW50402   4.851   3.084   1.099
16132SOL    HW150403   4.784   3.106   1.163
16132SOL    HW250404   4.816   3.121   1.016
16133SOL     OW50405   5.324   2.959   1.082
16133SOL    HW150406   5.334   3.028   1.150
16133SOL    HW250407   5.266   3.005   1.019
16134SOL     OW50408   4.652   1.968   1.413
16134SOL    HW150409   4.679   1.950   1.322
16134SOL    HW250410   4.732   2.011   1.449
16135SOL     OW50411   4.720   2.970   1.739
16135SOL    HW150412   4.630   2.998   1.761
16135SOL    HW250413   4.707   2.896   1.678
16136SOL     OW50414   4.458   2.933   0.373
16136SOL    HW150415   4.442   2.908   0.466
16136SOL    HW250416   4.522   2.865   0.341
16137SOL     OW50417   4.139   2.675   1.261
16137SOL    HW150418   4.212   2.674   1.326
16137SOL    HW250419   4.099   2.587   1.273
16138SOL     OW50420   5.011   2.249   1.257
16138SOL    HW150421   5.030   2.324   1.317
16138SOL    HW250422   4.921   2.268   1.227
16139SOL     OW50423   3.796   3.433   1.346
16139SOL    HW150424   3.798   3.526   1.320
16139SOL    HW250425   3.891   3.410   1.345
16140SOL     OW50426   4.079   2.964   0.506
16140SOL    HW150427   4.073   3.038   0.445
16140SOL    HW250428   4.066   2.889   0.445
16141SOL     OW50429   4.268   2.397   0.868
16141SOL    HW150430   4.294   2.462   0.799
16141SOL    HW250431   4.331   2.416   0.939
16142SOL     OW50432   4.956   3.189   0.401
16142SOL    HW150433   5.003   3.269   0.433
16142SOL    HW250434   4.864   3.209   0.425
16143SOL     OW50435   5.008   3.330   1.159
16143SOL    HW150436   5.062   3.326   1.240
16143SOL    HW250437   4.947   3.256   1.171
16144SOL     OW50438   5.286   2.472   0.470
16144SOL    HW150439   5.242   2.522   0.541
16144SOL    HW250440   5.324   2.543   0.417
16145SOL     OW50441   4.058   3.375   1.321
16145SOL    HW150442   4.048   3.333   1.232
16145SOL    HW250443   4.152   3.400   1.316
16146SOL     OW50444   4.164   2.590   1.631
16146SOL    HW150445   4.215   2.631   1.560
16146SOL    HW250446   4.196   2.499   1.628
16147SOL     OW50447   5.354   2.649   1.674
16147SOL    HW150448   5.263   2.684   1.671
16147SOL    HW250449   5.397   2.701   1.602
16148SOL     OW50450   4.717   1.971   1.760
16148SOL    HW150451   4.780   2.043   1.745
16148SOL    HW250452   4.763   1.897   1.715
16149SOL     OW50453   4.224   1.875   1.749
16149SOL    HW150454   4.177   1.817   1.686
16149SOL    HW250455   4.160   1.949   1.759
16150SOL     OW50456   4.333   2.755   1.052
16150SOL    HW150457   4.349   2.851   1.043
16150SOL    HW250458   4.260   2.750   1.116
16151SOL     OW50459   5.075   2.723   1.014
16151SOL    HW150460   4.990   2.690   0.981
16151SOL    HW250461   5.126   2.641   1.022
16152SOL     OW50462   4.956   2.373   0.291
16152SOL    HW150463   4.963   2.301   0.357
16152SOL    HW250464   4.892   2.432   0.333
16153SOL     OW50465   4.035   2.053   1.255
16153SOL    HW150466   3.983   2.082   1.332
16153SOL    HW250467   4.007   1.960   1.247
16154SOL     OW50468   3.753   3.168   1.285
16154SOL    HW150469   3.781   3.108   1.357
16154SOL    HW250470   3.762   3.256   1.324
16155SOL     OW50471   4.447   2.492   1.059
16155SOL    HW150472   4.528   2.471   1.010
16155SOL    HW250473   4.429   2.586   1.039
16156SOL     OW50474   5.498   2.818   1.848
16156SOL    HW150475   5.451   2.761   1.785
16156SOL    HW250476   5.433   2.823   1.920
16157SOL     OW50477   4.057   1.936   0.618
16157SOL    HW150478   4.021   2.021   0.649
16157SOL    HW250479   4.046   1.880   0.697
16158SOL     OW50480   5.322   2.235   0.341
16158SOL    HW150481   5.353   2.167   0.403
16158SOL    HW250482   5.304   2.312   0.399
16159SOL     OW50483   4.796   2.607   0.980
16159SOL    HW150484   4.774   2.615   1.075
16159SOL    HW250485   4.755   2.521   0.958
16160SOL     OW50486   4.704   3.427   1.710
16160SOL    HW150487   4.694   3.475   1.624
16160SOL    HW250488   4.739   3.341   1.681
16161SOL     OW50489   5.570   3.346   1.603
16161SOL    HW150490   5.591   3.376   1.513
16161SOL    HW250491   5.641   3.386   1.655
16162SOL     OW50492   4.076   2.758   1.813
16162SOL    HW150493   4.161   2.783   1.852
16162SOL    HW250494   4.101   2.684   1.755
16163SOL     OW50495   5.226   2.127   0.106
16163SOL    HW150496   5.157   2.077   0.152
16163SOL    HW250497   5.277   2.164   0.180
16164SOL     OW50498   5.009   2.705   0.027
16164SOL    HW150499   5.038   2.612   0.040
16164SOL    HW250500   5.061   2.731  11.052
16165SOL     OW50501   4.787   3.223   0.852
16165SOL    HW150502   4.796   3.145   0.792
16165SOL    HW250503   4.856   3.283   0.821
16166SOL     OW50504   4.004   2.672   0.998
16166SOL    HW150505   4.094   2.687   0.966
16166SOL    HW250506   4.007   2.580   1.026
16167SOL     OW50507   4.040   2.398   1.004
16167SOL    HW150508   4.013   2.305   0.993
16167SOL    HW250509   4.113   2.404   0.940
16168SOL     OW50510   4.879   2.223   1.699
16168SOL    HW150511   4.833   2.280   1.763
16168SOL    HW250512   4.964   2.271   1.688
16169SOL     OW50513   4.893   2.060   1.481
16169SOL    HW150514   4.890   2.125   1.554
16169SOL    HW250515   4.940   2.109   1.412
16170SOL     OW50516   3.713   3.205   0.218
16170SOL    HW150517   3.625   3.209   0.174
16170SOL    HW250518   3.726   3.109   0.226
16171SOL     OW50519   3.817   3.641   0.940
16171SOL    HW150520   3.790   3.575   0.874
16171SOL    HW250521   3.908   3.662   0.909
16172SOL     OW50522   4.204   3.434   0.919
16172SOL    HW150523   4.277   3.499   0.926
16172SOL    HW250524   4.238   3.372   0.851
16173SOL     OW50525   4.700   2.627   1.242
16173SOL    HW150526   4.750   2.595   1.319
16173SOL    HW250527   4.610   2.602   1.267
16174SOL     OW50528   3.745   2.382   1.104
16174SOL    HW150529   3.825   2.370   1.051
16174SOL    HW250530   3.782   2.402   1.191
16175SOL     OW50531   3.952   2.377   1.701
16175SOL    HW150532   4.008   2.340   1.631
16175SOL    HW250533   3.908   2.451   1.655
16176SOL     OW50534   5.114   2.779   1.644
16176SOL    HW150535   5.133   2.875   1.647
16176SOL    HW250536   5.111   2.761   1.549
16177SOL     OW50537   4.524   2.422   0.389
16177SOL    HW150538   4.546   2.355   0.322
16177SOL    HW250539   4.453   2.473   0.346
16178SOL     OW50540   5.365   2.487   1.206
16178SOL    HW150541   5.336   2.421   1.270
16178SOL    HW250542   5.445   2.447   1.169
16179SOL     OW50543   3.977   3.401   1.718
16179SOL    HW150544   3.960   3.465   1.788
16179SOL    HW250545   3.980   3.317   1.768
16180SOL     OW50546   4.403   2.337   1.275
16180SOL    HW150547   4.357   2.260   1.238
16180SOL    HW250548   4.408   2.398   1.198
16181SOL     OW50549   4.652   3.554   1.476
16181SOL    HW150550   4.629   3.524   1.387
16181SOL    HW250551   4.647   3.651   1.468
16182SOL     OW50552   4.172   2.323   0.198
16182SOL    HW150553   4.236   2.396   0.201
16182SOL    HW250554   4.089   2.373   0.204
16183SOL     OW50555   3.832   2.993   1.474
16183SOL    HW150556   3.843   2.937   1.554
16183SOL    HW250557   3.850   2.929   1.402
16184SOL     OW50558   5.053   2.901   1.233
16184SOL    HW150559   5.070   2.850   1.152
16184SOL    HW250560   4.986   2.964   1.201
16185SOL     OW50561   5.032   2.720   0.305
16185SOL    HW150562   4.950   2.686   0.343
16185SOL    HW250563   5.014   2.717   0.210
16186SOL     OW50564   5.483   3.611   1.130
16186SOL    HW150565   5.552   3.634   1.065
16186SOL    HW250566   5.472   3.515   1.111
16187SOL     OW50567   4.963   3.590   1.108
16187SOL    HW150568   5.052   3.613   1.080
16187SOL    HW250569   4.970   3.494   1.125
16188SOL     OW50570   3.823   3.115   1.036
16188SOL    HW150571   3.789   3.134   1.126
16188SOL    HW250572   3.749   3.067   0.996
16189SOL     OW50573   4.421   3.499   1.740
16189SOL    HW150574   4.380   3.583   1.715
16189SOL    HW250575   4.511   3.508   1.707
16190SOL     OW50576   4.643   1.982   0.142
16190SOL    HW150577   4.697   1.937   0.076
16190SOL    HW250578   4.671   1.935   0.222
16191SOL     OW50579   5.403   1.995   0.504
16191SOL    HW150580   5.484   1.988   0.450
16191SOL    HW250581   5.409   1.915   0.560
16192SOL     OW50582   5.085   3.426   0.485
16192SOL    HW150583   5.153   3.440   0.415
16192SOL    HW250584   5.050   3.516   0.495
16193SOL     OW50585   3.877   3.661   1.829
16193SOL    HW150586   3.832   3.590   1.878
16193SOL    HW250587   3.927   3.704   1.901
16194SOL     OW50588   4.978   2.784   0.649
16194SOL    HW150589   5.060   2.733   0.660
16194SOL    HW250590   5.013   2.868   0.614
16195SOL     OW50591   4.548   3.127   1.430
16195SOL    HW150592   4.515   3.167   1.513
16195SOL    HW250593   4.477   3.152   1.369
16196SOL     OW50594   4.407   3.485   0.168
16196SOL    HW150595   4.420   3.489   0.073
16196SOL    HW250596   4.340   3.413   0.174
16197SOL     OW50597   5.354   3.590   1.390
16197SOL    HW150598   5.388   3.607   1.300
16197SOL    HW250599   5.341   3.680   1.426
16198SOL     OW50600   5.562   2.021   0.974
16198SOL    HW150601   5.593   1.937   0.935
16198SOL    HW250602   5.480   2.040   0.924
16199SOL     OW50603   3.975   2.178   0.712
16199SOL    HW150604   3.887   2.215   0.690
16199SOL    HW250605   3.978   2.189   0.809
16200SOL     OW50606   4.937   3.459   0.036
16200SOL    HW150607   4.942   3.364   0.054
16200SOL    HW250608   4.870   3.462  11.066
16201SOL     OW50609   4.540   2.862   1.385
16201SOL    HW150610   4.568   2.865   1.292
16201SOL    HW250611   4.544   2.957   1.411
16202SOL     OW50612   4.622   2.760   0.254
16202SOL    HW150613   4.692   2.804   0.201
16202SOL    HW250614   4.671   2.690   0.299
16203SOL     OW50615   5.232   3.472   0.042
16203SOL    HW150616   5.136   3.482   0.044
16203SOL    HW250617   5.255   3.500  11.054
16204SOL     OW50618   4.063   3.139   1.489
16204SOL    HW150619   4.055   3.209   1.424
16204SOL    HW250620   3.982   3.087   1.478
16205SOL     OW50621   5.325   3.172   1.263
16205SOL    HW150622   5.361   3.142   1.347
16205SOL    HW250623   5.263   3.242   1.293
16206SOL     OW50624   4.776   2.980   0.726
16206SOL    HW150625   4.699   2.926   0.751
16206SOL    HW250626   4.836   2.913   0.691
16207SOL     OW50627   4.754   2.094   0.988
16207SOL    HW150628   4.740   2.051   0.901
16207SOL    HW250629   4.755   2.017   1.048
16208SOL     OW50630   4.342   3.364   0.485
16208SOL    HW150631   4.388   3.312   0.415
16208SOL    HW250632   4.263   3.395   0.440
16209SOL     OW50633   5.432   2.228   1.380
16209SOL    HW150634   5.493   2.303   1.378
16209SOL    HW250635   5.480   2.162   1.325
16210SOL     OW50636   3.968   3.231   0.271
16210SOL    HW150637   3.872   3.227   0.250
16210SOL    HW250638   3.966   3.257   0.365
16211SOL     OW50639   3.857   2.866   1.703
16211SOL    HW150640   3.785   2.855   1.768
16211SOL    HW250641   3.936   2.835   1.752
16212SOL     OW50642   4.401   2.052   1.480
16212SOL    HW150643   4.487   2.015   1.452
16212SOL    HW250644   4.425   2.096   1.563
16213SOL     OW50645   3.848   2.227   0.011
16213SOL    HW150646   3.768   2.182  11.081
16213SOL    HW250647   3.829   2.319  11.088
16214SOL     OW50648   5.170   2.709   1.381
16214SOL    HW150649   5.120   2.770   1.324
16214SOL    HW250650   5.261   2.736   1.361
16215SOL     OW50651   3.771   2.023   0.324
16215SOL    HW150652   3.769   2.103   0.271
16215SOL    HW250653   3.861   1.990   0.305
16216SOL     OW50654   4.922   3.191   0.123
16216SOL    HW150655   4.826   3.180   0.115
16216SOL    HW250656   4.935   3.184   0.220
16217SOL     OW50657   4.341   2.675   1.433
16217SOL    HW150658   4.394   2.755   1.427
16217SOL    HW250659   4.412   2.609   1.444
16218SOL     OW50660   5.229   3.646   0.958
16218SOL    HW150661   5.268   3.687   0.879
16218SOL    HW250662   5.306   3.627   1.012
16219SOL     OW50663   4.440   2.395   1.696
16219SOL    HW150664   4.489   2.457   1.753
16219SOL    HW250665   4.465   2.307   1.728
16220SOL     OW50666   5.191   3.040   1.626
16220SOL    HW150667   5.183   3.050   1.723
16220SOL    HW250668   5.284   3.062   1.610
16221SOL     OW50669   4.098   3.594   1.561
16221SOL    HW150670   4.015   3.641   1.546
16221SOL    HW250671   4.066   3.510   1.600
16222SOL     OW50672   5.428   2.746   1.238
16222SOL    HW150673   5.401   2.656   1.212
16222SOL    HW250674   5.385   2.803   1.172
16223SOL     OW50675   4.947   2.172   0.480
16223SOL    HW150676   5.017   2.105   0.470
16223SOL    HW250677   4.978   2.224   0.557
16224SOL     OW50678   4.308   2.604   0.680
16224SOL    HW150679   4.346   2.692   0.662
16224SOL    HW250680   4.247   2.590   0.606
16225SOL     OW50681   5.489   2.246   1.645
16225SOL    HW150682   5.460   2.250   1.552
16225SOL    HW250683   5.416   2.197   1.685
16226SOL     OW50684   5.465   2.813   1.501
16226SOL    HW150685   5.460   2.908   1.485
16226SOL    HW250686   5.472   2.776   1.411
16227SOL     OW50687   4.625   3.213   0.051
16227SOL    HW150688   4.543   3.221   0.101
16227SOL    HW250689   4.630   3.297   0.004
16228SOL     OW50690   4.363   3.660   0.907
16228SOL    HW150691   4.351   3.756   0.897
16228SOL    HW250692   4.458   3.651   0.925
16229SOL     OW50693   4.598   2.808   0.843
16229SOL    HW150694   4.645   2.738   0.890
16229SOL    HW250695   4.575   2.868   0.915
16230SOL     OW50696   4.782   2.851   0.066
16230SOL    HW150697   4.791   2.926   0.007
16230SOL    HW250698   4.862   2.799   0.050
16231SOL     OW50699   5.581   3.422   0.826
16231SOL    HW150700   5.488   3.416   0.801
16231SOL    HW250701   5.590   3.353   0.892
16232SOL     OW50702   3.961   3.177   1.864
16232SOL    HW150703   3.885   3.121   1.843
16232SOL    HW250704   3.951   3.188   1.960
16233SOL     OW50705   3.817   3.106   0.658
16233SOL    HW150706   3.827   3.057   0.741
16233SOL    HW250707   3.888   3.068   0.604
16234SOL     OW50708   4.401   3.262   1.615
16234SOL    HW150709   4.322   3.213   1.643
16234SOL    HW250710   4.387   3.348   1.657
16235SOL     OW50711   5.551   2.029   1.237
16235SOL    HW150712   5.562   1.934   1.247
16235SOL    HW250713   5.554   2.038   1.139
16236SOL     OW50714   4.162   2.280   0.526
16236SOL    HW150715   4.202   2.208   0.476
16236SOL    HW250716   4.111   2.235   0.595
16237SOL     OW50717   5.454   3.352   1.086
16237SOL    HW150718   5.373   3.323   1.040
16237SOL    HW250719   5.447   3.296   1.166
16238SOL     OW50720   4.041   2.401   1.277
16238SOL    HW150721   4.117   2.365   1.325
16238SOL    HW250722   4.059   2.375   1.185
16239SOL     OW50723   4.545   3.440   0.680
16239SOL    HW150724   4.541   3.464   0.586
16239SOL    HW250725   4.456   3.406   0.694
16240SOL     OW50726   5.152   2.087   1.092
16240SOL    HW150727   5.199   2.020   1.142
16240SOL    HW250728   5.109   2.140   1.162
16241SOL     OW50729   4.744   1.865   1.157
16241SOL    HW150730   4.688   1.791   1.133
16241SOL    HW250731   4.833   1.823   1.153
16242SOL     OW50732   4.485   3.204   0.317
16242SOL    HW150733   4.470   3.108   0.331
16242SOL    HW250734   4.575   3.213   0.353
16243SOL     OW50735   4.322   3.420   1.267
16243SOL    HW150736   4.329   3.501   1.321
16243SOL    HW250737   4.415   3.413   1.238
16244SOL     OW50738   5.044   1.893   0.174
16244SOL    HW150739   5.092   1.813   0.148
16244SOL    HW250740   4.957   1.857   0.201
16245SOL     OW50741   5.035   2.337   0.693
16245SOL    HW150742   4.967   2.407   0.691
16245SOL    HW250743   5.019   2.295   0.780
16246SOL     OW50744   5.327   2.064   0.855
16246SOL    HW150745   5.244   2.060   0.904
16246SOL    HW250746   5.319   2.146   0.804
16247SOL     OW50747   3.776   2.948   0.275
16247SOL    HW150748   3.872   2.942   0.278
16247SOL    HW250749   3.750   2.856   0.296
16248SOL     OW50750   4.614   3.499   0.353
16248SOL    HW150751   4.536   3.488   0.296
16248SOL    HW250752   4.592   3.582   0.402
16249SOL     OW50753   3.964   2.498   1.997
16249SOL    HW150754   3.871   2.493   2.023
16249SOL    HW250755   3.963   2.481   1.902
16250SOL     OW50756   3.955   2.139   2.859
16250SOL    HW150757   3.978   2.120   2.952
16250SOL    HW250758   3.866   2.099   2.852
16251SOL     OW50759   3.727   2.269   2.489
16251SOL    HW150760   3.644   2.290   2.537
16251SOL    HW250761   3.704   2.183   2.452
16252SOL     OW50762   4.298   3.154   3.056
16252SOL    HW150763   4.209   3.148   3.019
16252SOL    HW250764   4.301   3.245   3.089
16253SOL     OW50765   5.258   3.387   2.562
16253SOL    HW150766   5.223   3.379   2.653
16253SOL    HW250767   5.179   3.397   2.506
16254SOL     OW50768   4.844   2.547   2.579
16254SOL    HW150769   4.935   2.547   2.611
16254SOL    HW250770   4.793   2.567   2.659
16255SOL     OW50771   5.488   2.459   2.102
16255SOL    HW150772   5.473   2.467   2.005
16255SOL    HW250773   5.443   2.376   2.121
16256SOL     OW50774   4.480   3.030   2.900
16256SOL    HW150775   4.412   3.070   2.958
16256SOL    HW250776   4.506   3.109   2.849
16257SOL     OW50777   4.604   2.635   3.676
16257SOL    HW150778   4.571   2.696   3.743
16257SOL    HW250779   4.626   2.693   3.601
16258SOL     OW50780   4.413   2.891   2.516
16258SOL    HW150781   4.473   2.873   2.591
16258SOL    HW250782   4.341   2.943   2.557
16259SOL     OW50783   4.425   3.018   3.669
16259SOL    HW150784   4.472   3.102   3.684
16259SOL    HW250785   4.337   3.048   3.639
16260SOL     OW50786   4.040   3.291   2.929
16260SOL    HW150787   3.970   3.245   2.879
16260SOL    HW250788   4.089   3.341   2.861
16261SOL     OW50789   5.198   3.368   3.229
16261SOL    HW150790   5.252   3.448   3.245
16261SOL    HW250791   5.140   3.367   3.307
16262SOL     OW50792   4.163   2.273   3.372
16262SOL    HW150793   4.243   2.219   3.375
16262SOL    HW250794   4.093   2.207   3.357
16263SOL     OW50795   5.342   2.304   2.603
16263SOL    HW150796   5.280   2.342   2.539
16263SOL    HW250797   5.347   2.372   2.670
16264SOL     OW50798   3.945   3.576   2.337
16264SOL    HW150799   3.976   3.653   2.390
16264SOL    HW250800   4.005   3.579   2.261
16265SOL     OW50801   4.849   3.210   3.518
16265SOL    HW150802   4.887   3.213   3.607
16265SOL    HW250803   4.804   3.123   3.522
16266SOL     OW50804   3.976   3.295   2.393
16266SOL    HW150805   3.968   3.391   2.401
16266SOL    HW250806   3.906   3.263   2.451
16267SOL     OW50807   4.000   2.945   2.767
16267SOL    HW150808   3.997   2.872   2.830
16267SOL    HW250809   3.940   3.010   2.808
16268SOL     OW50810   4.328   3.654   3.274
16268SOL    HW150811   4.252   3.629   3.330
16268SOL    HW250812   4.347   3.745   3.304
16269SOL     OW50813   4.303   2.846   1.972
16269SOL    HW150814   4.352   2.895   1.902
16269SOL    HW250815   4.340   2.886   2.052
16270SOL     OW50816   5.325   1.976   3.358
16270SOL    HW150817   5.322   2.045   3.291
16270SOL    HW250818   5.350   2.022   3.438
16271SOL     OW50819   3.853   2.511   2.429
16271SOL    HW150820   3.808   2.426   2.442
16271SOL    HW250821   3.841   2.555   2.516
16272SOL     OW50822   5.570   3.605   2.203
16272SOL    HW150823   5.641   3.580   2.266
16272SOL    HW250824   5.586   3.700   2.193
16273SOL     OW50825   3.791   3.459   1.979
16273SOL    HW150826   3.770   3.367   2.000
16273SOL    HW250827   3.753   3.507   2.055
16274SOL     OW50828   5.382   2.745   2.507
16274SOL    HW150829   5.475   2.721   2.491
16274SOL    HW250830   5.370   2.814   2.439
16275SOL     OW50831   5.368   2.966   2.330
16275SOL    HW150832   5.453   2.970   2.283
16275SOL    HW250833   5.376   3.042   2.391
16276SOL     OW50834   3.838   2.598   3.439
16276SOL    HW150835   3.922   2.639   3.465
16276SOL    HW250836   3.777   2.672   3.452
16277SOL     OW50837   4.325   3.270   2.622
16277SOL    HW150838   4.280   3.183   2.631
16277SOL    HW250839   4.311   3.286   2.526
16278SOL     OW50840   5.012   3.099   3.287
16278SOL    HW150841   5.043   3.025   3.232
16278SOL    HW250842   5.064   3.086   3.369
16279SOL     OW50843   4.538   1.862   2.352
16279SOL    HW150844   4.563   1.955   2.349
16279SOL    HW250845   4.441   1.867   2.365
16280SOL     OW50846   3.898   2.844   3.128
16280SOL    HW150847   3.990   2.814   3.120
16280SOL    HW250848   3.849   2.778   3.077
16281SOL     OW50849   5.280   2.815   2.036
16281SOL    HW150850   5.200   2.766   2.062
16281SOL    HW250851   5.309   2.851   2.121
16282SOL     OW50852   4.898   3.675   3.489
16282SOL    HW150853   4.902   3.734   3.413
16282SOL    HW250854   4.922   3.590   3.449
16283SOL     OW50855   4.052   2.101   3.643
16283SOL    HW150856   4.116   2.164   3.680
16283SOL    HW250857   3.970   2.130   3.688
16284SOL     OW50858   5.197   3.295   2.828
16284SOL    HW150859   5.131   3.313   2.897
16284SOL    HW250860   5.171   3.205   2.798
16285SOL     OW50861   5.390   3.596   2.464
16285SOL    HW150862   5.371   3.563   2.375
16285SOL    HW250863   5.354   3.524   2.518
16286SOL     OW50864   4.328   2.575   2.140
16286SOL    HW150865   4.319   2.659   2.093
16286SOL    HW250866   4.249   2.573   2.196
16287SOL     OW50867   4.986   2.194   2.787
16287SOL    HW150868   4.900   2.152   2.808
16287SOL    HW250869   5.047   2.148   2.847
16288SOL     OW50870   5.299   3.511   2.168
16288SOL    HW150871   5.393   3.533   2.168
16288SOL    HW250872   5.283   3.499   2.073
16289SOL     OW50873   4.539   2.482   3.323
16289SOL    HW150874   4.513   2.449   3.412
16289SOL    HW250875   4.484   2.425   3.264
16290SOL     OW50876   4.682   2.754   3.440
16290SOL    HW150877   4.722   2.671   3.408
16290SOL    HW250878   4.641   2.788   3.358
16291SOL     OW50879   4.700   2.267   3.094
16291SOL    HW150880   4.616   2.282   3.140
16291SOL    HW250881   4.683   2.185   3.046
16292SOL     OW50882   4.758   2.543   2.274
16292SOL    HW150883   4.771   2.566   2.367
16292SOL    HW250884   4.671   2.498   2.275
16293SOL     OW50885   3.835   2.661   2.653
16293SOL    HW150886   3.906   2.673   2.718
16293SOL    HW250887   3.780   2.739   2.671
16294SOL     OW50888   3.821   3.705   3.419
16294SOL    HW150889   3.839   3.689   3.514
16294SOL    HW250890   3.725   3.702   3.416
16295SOL     OW50891   4.602   2.227   2.080
16295SOL    HW150892   4.638   2.279   2.006
16295SOL    HW250893   4.600   2.139   2.041
16296SOL     OW50894   5.441   2.447   3.691
16296SOL    HW150895   5.415   2.527   3.641
16296SOL    HW250896   5.480   2.392   3.620
16297SOL     OW50897   5.084   3.009   2.415
16297SOL    HW150898   5.170   3.009   2.370
16297SOL    HW250899   5.039   3.082   2.367
16298SOL     OW50900   4.272   2.063   2.754
16298SOL    HW150901   4.280   2.072   2.851
16298SOL    HW250902   4.254   2.153   2.726
16299SOL     OW50903   4.718   3.311   2.344
16299SOL    HW150904   4.669   3.368   2.281
16299SOL    HW250905   4.723   3.367   2.423
16300SOL     OW50906   4.067   3.669   2.714
16300SOL    HW150907   4.113   3.585   2.730
16300SOL    HW250908   4.137   3.733   2.734
16301SOL     OW50909   5.541   2.915   2.754
16301SOL    HW150910   5.487   2.917   2.675
16301SOL    HW250911   5.477   2.901   2.825
16302SOL     OW50912   4.949   3.430   3.373
16302SOL    HW150913   4.924   3.352   3.426
16302SOL    HW250914   4.906   3.409   3.289
16303SOL     OW50915   4.029   2.807   2.119
16303SOL    HW150916   4.100   2.841   2.064
16303SOL    HW250917   4.001   2.729   2.070
16304SOL     OW50918   5.155   2.650   2.595
16304SOL    HW150919   5.172   2.594   2.672
16304SOL    HW250920   5.247   2.681   2.575
16305SOL     OW50921   4.186   3.139   3.590
16305SOL    HW150922   4.146   3.141   3.500
16305SOL    HW250923   4.105   3.139   3.645
16306SOL     OW50924   4.820   3.619   2.100
16306SOL    HW150925   4.745   3.574   2.142
16306SOL    HW250926   4.826   3.576   2.013
16307SOL     OW50927   3.891   2.149   3.363
16307SOL    HW150928   3.824   2.212   3.394
16307SOL    HW250929   3.908   2.098   3.443
16308SOL     OW50930   5.351   3.224   1.954
16308SOL    HW150931   5.310   3.310   1.931
16308SOL    HW250932   5.287   3.160   1.918
16309SOL     OW50933   4.178   3.600   2.181
16309SOL    HW150934   4.226   3.649   2.250
16309SOL    HW250935   4.249   3.567   2.124
16310SOL     OW50936   5.121   1.998   2.303
16310SOL    HW150937   5.114   1.939   2.225
16310SOL    HW250938   5.217   2.001   2.317
16311SOL     OW50939   3.969   3.657   3.087
16311SOL    HW150940   4.022   3.585   3.125
16311SOL    HW250941   3.948   3.623   2.998
16312SOL     OW50942   4.683   3.567   2.749
16312SOL    HW150943   4.764   3.518   2.766
16312SOL    HW250944   4.641   3.514   2.678
16313SOL     OW50945   4.125   2.542   2.324
16313SOL    HW150946   4.137   2.447   2.336
16313SOL    HW250947   4.031   2.553   2.347
16314SOL     OW50948   5.250   2.132   3.583
16314SOL    HW150949   5.252   2.118   3.681
16314SOL    HW250950   5.206   2.050   3.555
16315SOL     OW50951   4.360   1.987   1.951
16315SOL    HW150952   4.425   1.920   1.974
16315SOL    HW250953   4.306   1.941   1.884
16316SOL     OW50954   4.482   2.114   3.601
16316SOL    HW150955   4.562   2.058   3.607
16316SOL    HW250956   4.433   2.090   3.682
16317SOL     OW50957   4.614   3.397   3.053
16317SOL    HW150958   4.600   3.371   2.960
16317SOL    HW250959   4.676   3.329   3.085
16318SOL     OW50960   5.071   2.462   3.312
16318SOL    HW150961   5.162   2.431   3.308
16318SOL    HW250962   5.085   2.557   3.292
16319SOL     OW50963   4.538   3.280   2.790
16319SOL    HW150964   4.618   3.265   2.737
16319SOL    HW250965   4.467   3.284   2.723
16320SOL     OW50966   4.650   2.347   2.756
16320SOL    HW150967   4.565   2.322   2.794
16320SOL    HW250968   4.707   2.275   2.789
16321SOL     OW50969   4.273   1.912   2.369
16321SOL    HW150970   4.190   1.916   2.420
16321SOL    HW250971   4.260   1.984   2.304
16322SOL     OW50972   5.167   3.041   1.888
16322SOL    HW150973   5.191   2.964   1.943
16322SOL    HW250974   5.080   3.067   1.922
16323SOL     OW50975   4.002   1.904   2.050
16323SOL    HW150976   4.059   1.972   2.012
16323SOL    HW250977   4.068   1.845   2.092
16324SOL     OW50978   4.640   2.146   2.367
16324SOL    HW150979   4.643   2.166   2.272
16324SOL    HW250980   4.734   2.125   2.384
16325SOL     OW50981   4.812   2.540   3.326
16325SOL    HW150982   4.747   2.467   3.326
16325SOL    HW250983   4.899   2.498   3.319
16326SOL     OW50984   4.961   3.429   2.640
16326SOL    HW150985   4.949   3.496   2.571
16326SOL    HW250986   5.027   3.469   2.698
16327SOL     OW50987   4.197   3.025   2.604
16327SOL    HW150988   4.123   2.994   2.661
16327SOL    HW250989   4.160   3.006   2.515
16328SOL     OW50990   4.990   3.670   2.466
16328SOL    HW150991   5.042   3.734   2.412
16328SOL    HW250992   4.947   3.731   2.528
16329SOL     OW50993   4.781   2.399   1.891
16329SOL    HW150994   4.735   2.481   1.864
16329SOL    HW250995   4.853   2.430   1.948
16330SOL     OW50996   3.786   2.412   3.255
16330SOL    HW150997   3.881   2.397   3.240
16330SOL    HW250998   3.788   2.490   3.315
16331SOL     OW50999   4.291   2.080   3.025
16331SOL    HW151000   4.337   2.005   3.064
16331SOL    HW251001   4.202   2.073   3.065
16332SOL     OW51002   4.676   1.944   2.638
16332SOL    HW151003   4.658   1.901   2.553
16332SOL    HW251004   4.689   1.866   2.695
16333SOL     OW51005   5.144   3.049   2.752
16333SOL    HW151006   5.075   2.984   2.763
16333SOL    HW251007   5.154   3.058   2.656
16334SOL     OW51008   5.171   2.437   2.864
16334SOL    HW151009   5.129   2.350   2.874
16334SOL    HW251010   5.248   2.431   2.924
16335SOL     OW51011   5.568   2.688   2.253
16335SOL    HW151012   5.624   2.634   2.313
16335SOL    HW251013   5.552   2.624   2.182
16336SOL     OW51014   4.217   3.284   1.984
16336SOL    HW151015   4.136   3.269   2.035
16336SOL    HW251016   4.202   3.230   1.906
16337SOL     OW51017   5.391   3.148   2.532
16337SOL    HW151018   5.489   3.154   2.530
16337SOL    HW251019   5.362   3.239   2.546
16338SOL     OW51020   5.129   2.455   1.923
16338SOL    HW151021   5.081   2.420   2.001
16338SOL    HW251022   5.220   2.428   1.942
16339SOL     OW51023   4.246   2.091   2.174
16339SOL    HW151024   4.294   2.059   2.095
16339SOL    HW251025   4.211   2.176   2.139
16340SOL     OW51026   5.459   3.097   3.441
16340SOL    HW151027   5.547   3.057   3.452
16340SOL    HW251028   5.481   3.191   3.453
16341SOL     OW51029   4.794   3.223   3.197
16341SOL    HW151030   4.719   3.186   3.246
16341SOL    HW251031   4.870   3.180   3.243
16342SOL     OW51032   5.338   3.474   3.502
16342SOL    HW151033   5.345   3.514   3.414
16342SOL    HW251034   5.420   3.421   3.506
16343SOL     OW51035   4.840   3.083   2.954
16343SOL    HW151036   4.792   3.110   3.033
16343SOL    HW251037   4.808   3.143   2.886
16344SOL     OW51038   5.324   2.959   2.944
16344SOL    HW151039   5.332   3.027   3.013
16344SOL    HW251040   5.270   3.006   2.878
16345SOL     OW51041   4.630   1.979   3.255
16345SOL    HW151042   4.658   1.942   3.169
16345SOL    HW251043   4.715   2.014   3.289
16346SOL     OW51044   4.716   2.977   3.596
16346SOL    HW151045   4.624   2.998   3.617
16346SOL    HW251046   4.708   2.902   3.534
16347SOL     OW51047   4.440   2.924   2.205
16347SOL    HW151048   4.422   2.899   2.296
16347SOL    HW251049   4.522   2.875   2.185
16348SOL     OW51050   4.150   2.674   3.126
16348SOL    HW151051   4.220   2.669   3.194
16348SOL    HW251052   4.102   2.591   3.140
16349SOL     OW51053   5.012   2.250   3.122
16349SOL    HW151054   5.025   2.323   3.185
16349SOL    HW251055   4.921   2.263   3.091
16350SOL     OW51056   3.799   3.432   3.201
16350SOL    HW151057   3.799   3.527   3.183
16350SOL    HW251058   3.894   3.410   3.201
16351SOL     OW51059   4.093   2.966   2.365
16351SOL    HW151060   4.107   3.033   2.297
16351SOL    HW251061   4.062   2.891   2.313
16352SOL     OW51062   4.283   2.399   2.701
16352SOL    HW151063   4.293   2.475   2.640
16352SOL    HW251064   4.319   2.432   2.784
16353SOL     OW51065   4.953   3.197   2.269
16353SOL    HW151066   5.000   3.279   2.294
16353SOL    HW251067   4.861   3.224   2.284
16354SOL     OW51068   5.019   3.333   3.032
16354SOL    HW151069   5.088   3.334   3.102
16354SOL    HW251070   4.951   3.275   3.071
16355SOL     OW51071   5.307   2.473   2.342
16355SOL    HW151072   5.285   2.552   2.393
16355SOL    HW251073   5.348   2.511   2.263
16356SOL     OW51074   4.056   3.371   3.175
16356SOL    HW151075   4.043   3.336   3.084
16356SOL    HW251076   4.150   3.398   3.170
16357SOL     OW51077   4.161   2.589   3.493
16357SOL    HW151078   4.211   2.634   3.423
16357SOL    HW251079   4.193   2.498   3.484
16358SOL     OW51080   5.328   2.615   3.521
16358SOL    HW151081   5.253   2.676   3.534
16358SOL    HW251082   5.381   2.667   3.457
16359SOL     OW51083   4.708   1.970   3.607
16359SOL    HW151084   4.760   2.032   3.558
16359SOL    HW251085   4.754   1.887   3.586
16360SOL     OW51086   4.222   1.886   3.615
16360SOL    HW151087   4.184   1.823   3.551
16360SOL    HW251088   4.152   1.954   3.618
16361SOL     OW51089   4.323   2.753   2.913
16361SOL    HW151090   4.344   2.848   2.913
16361SOL    HW251091   4.266   2.744   2.991
16362SOL     OW51092   5.078   2.730   2.858
16362SOL    HW151093   4.989   2.694   2.858
16362SOL    HW251094   5.130   2.655   2.888
16363SOL     OW51095   4.952   2.388   2.134
16363SOL    HW151096   4.954   2.311   2.193
16363SOL    HW251097   4.883   2.442   2.175
16364SOL     OW51098   4.030   2.064   3.122
16364SOL    HW151099   3.974   2.089   3.198
16364SOL    HW251100   4.012   1.968   3.115
16365SOL     OW51101   3.764   3.165   3.140
16365SOL    HW151102   3.785   3.113   3.219
16365SOL    HW251103   3.767   3.257   3.171
16366SOL     OW51104   4.452   2.518   2.903
16366SOL    HW151105   4.535   2.535   2.857
16366SOL    HW251106   4.410   2.606   2.904
16367SOL     OW51107   5.481   2.811   3.698
16367SOL    HW151108   5.413   2.774   3.641
16367SOL    HW251109   5.431   2.834   3.778
16368SOL     OW51110   4.017   1.923   2.471
16368SOL    HW151111   3.992   2.014   2.496
16368SOL    HW251112   4.026   1.881   2.558
16369SOL     OW51113   5.310   2.239   2.212
16369SOL    HW151114   5.348   2.169   2.268
16369SOL    HW251115   5.305   2.314   2.274
16370SOL     OW51116   4.765   2.609   2.831
16370SOL    HW151117   4.750   2.634   2.925
16370SOL    HW251118   4.759   2.512   2.837
16371SOL     OW51119   4.696   3.430   3.563
16371SOL    HW151120   4.688   3.484   3.481
16371SOL    HW251121   4.723   3.344   3.526
16372SOL     OW51122   5.573   3.350   3.467
16372SOL    HW151123   5.596   3.380   3.377
16372SOL    HW251124   5.651   3.380   3.518
16373SOL     OW51125   4.078   2.766   3.664
16373SOL    HW151126   4.161   2.783   3.712
16373SOL    HW251127   4.103   2.690   3.607
16374SOL     OW51128   5.225   2.110   1.990
16374SOL    HW151129   5.167   2.038   2.020
16374SOL    HW251130   5.258   2.149   2.074
16375SOL     OW51131   5.009   2.695   1.881
16375SOL    HW151132   5.056   2.610   1.890
16375SOL    HW251133   5.038   2.723   1.792
16376SOL     OW51134   4.796   3.220   2.705
16376SOL    HW151135   4.835   3.146   2.656
16376SOL    HW251136   4.861   3.292   2.689
16377SOL     OW51137   4.013   2.681   2.871
16377SOL    HW151138   4.108   2.688   2.857
16377SOL    HW251139   4.005   2.588   2.899
16378SOL     OW51140   4.056   2.398   2.868
16378SOL    HW151141   4.023   2.307   2.857
16378SOL    HW251142   4.113   2.406   2.789
16379SOL     OW51143   4.915   2.287   3.547
16379SOL    HW151144   4.856   2.295   3.625
16379SOL    HW251145   4.887   2.365   3.498
16380SOL     OW51146   4.881   2.081   3.336
16380SOL    HW151147   4.911   2.140   3.406
16380SOL    HW251148   4.940   2.103   3.263
16381SOL     OW51149   3.722   3.186   2.058
16381SOL    HW151150   3.630   3.201   2.025
16381SOL    HW251151   3.716   3.094   2.090
16382SOL     OW51152   3.822   3.648   2.809
16382SOL    HW151153   3.796   3.577   2.747
16382SOL    HW251154   3.913   3.668   2.776
16383SOL     OW51155   4.209   3.448   2.792
16383SOL    HW151156   4.276   3.517   2.808
16383SOL    HW251157   4.257   3.387   2.734
16384SOL     OW51158   4.700   2.626   3.087
16384SOL    HW151159   4.750   2.598   3.167
16384SOL    HW251160   4.610   2.617   3.120
16385SOL     OW51161   3.748   2.368   2.976
16385SOL    HW151162   3.829   2.373   2.924
16385SOL    HW251163   3.778   2.394   3.064
16386SOL     OW51164   3.945   2.375   3.564
16386SOL    HW151165   4.010   2.345   3.498
16386SOL    HW251166   3.901   2.449   3.519
16387SOL     OW51167   5.118   2.786   3.519
16387SOL    HW151168   5.138   2.882   3.520
16387SOL    HW251169   5.106   2.769   3.423
16388SOL     OW51170   4.515   2.419   2.270
16388SOL    HW151171   4.536   2.364   2.191
16388SOL    HW251172   4.447   2.479   2.232
16389SOL     OW51173   5.373   2.474   3.059
16389SOL    HW151174   5.363   2.399   3.118
16389SOL    HW251175   5.460   2.454   3.018
16390SOL     OW51176   3.971   3.403   3.575
16390SOL    HW151177   3.955   3.466   3.646
16390SOL    HW251178   3.983   3.320   3.625
16391SOL     OW51179   4.411   2.346   3.126
16391SOL    HW151180   4.361   2.269   3.097
16391SOL    HW251181   4.408   2.406   3.049
16392SOL     OW51182   4.651   3.554   3.329
16392SOL    HW151183   4.636   3.518   3.240
16392SOL    HW251184   4.644   3.650   3.317
16393SOL     OW51185   4.169   2.331   2.071
16393SOL    HW151186   4.236   2.399   2.058
16393SOL    HW251187   4.087   2.382   2.056
16394SOL     OW51188   3.831   2.995   3.336
16394SOL    HW151189   3.842   2.936   3.414
16394SOL    HW251190   3.851   2.934   3.261
16395SOL     OW51191   5.045   2.901   3.103
16395SOL    HW151192   5.083   2.867   3.020
16395SOL    HW251193   4.976   2.961   3.069
16396SOL     OW51194   5.030   2.716   2.155
16396SOL    HW151195   4.948   2.676   2.188
16396SOL    HW251196   5.014   2.717   2.058
16397SOL     OW51197   5.479   3.608   2.991
16397SOL    HW151198   5.552   3.631   2.931
16397SOL    HW251199   5.468   3.512   2.972
16398SOL     OW51200   4.960   3.589   2.974
16398SOL    HW151201   5.052   3.615   2.958
16398SOL    HW251202   4.970   3.494   2.992
16399SOL     OW51203   3.828   3.115   2.889
16399SOL    HW151204   3.801   3.132   2.982
16399SOL    HW251205   3.748   3.074   2.853
16400SOL     OW51206   4.417   3.503   3.607
16400SOL    HW151207   4.366   3.580   3.579
16400SOL    HW251208   4.501   3.514   3.561
16401SOL     OW51209   5.401   2.009   2.355
16401SOL    HW151210   5.469   1.992   2.288
16401SOL    HW251211   5.403   1.927   2.408
16402SOL     OW51212   5.085   3.436   2.337
16402SOL    HW151213   5.144   3.461   2.263
16402SOL    HW251214   5.047   3.523   2.361
16403SOL     OW51215   3.876   3.669   3.685
16403SOL    HW151216   3.834   3.595   3.733
16403SOL    HW251217   3.923   3.712   3.758
16404SOL     OW51218   4.541   3.115   3.297
16404SOL    HW151219   4.514   3.161   3.379
16404SOL    HW251220   4.470   3.144   3.236
16405SOL     OW51221   4.387   3.484   2.019
16405SOL    HW151222   4.401   3.494   1.923
16405SOL    HW251223   4.330   3.403   2.019
16406SOL     OW51224   5.347   3.586   3.250
16406SOL    HW151225   5.392   3.600   3.165
16406SOL    HW251226   5.337   3.677   3.285
16407SOL     OW51227   5.581   2.039   2.836
16407SOL    HW151228   5.596   1.946   2.811
16407SOL    HW251229   5.491   2.056   2.802
16408SOL     OW51230   3.975   2.182   2.562
16408SOL    HW151231   3.891   2.229   2.543
16408SOL    HW251232   3.977   2.184   2.658
16409SOL     OW51233   4.914   3.481   1.884
16409SOL    HW151234   4.924   3.386   1.904
16409SOL    HW251235   4.852   3.482   1.808
16410SOL     OW51236   4.550   2.858   3.220
16410SOL    HW151237   4.570   2.881   3.129
16410SOL    HW251238   4.544   2.946   3.263
16411SOL     OW51239   4.662   2.792   2.167
16411SOL    HW151240   4.722   2.826   2.097
16411SOL    HW251241   4.685   2.699   2.173
16412SOL     OW51242   5.249   3.467   1.898
16412SOL    HW151243   5.156   3.494   1.895
16412SOL    HW251244   5.274   3.472   1.804
16413SOL     OW51245   4.073   3.137   3.350
16413SOL    HW151246   4.061   3.205   3.282
16413SOL    HW251247   3.990   3.088   3.346
16414SOL     OW51248   5.322   3.161   3.127
16414SOL    HW151249   5.383   3.146   3.200
16414SOL    HW251250   5.268   3.235   3.161
16415SOL     OW51251   4.804   2.923   2.567
16415SOL    HW151252   4.729   2.896   2.624
16415SOL    HW251253   4.759   2.961   2.491
16416SOL     OW51254   4.748   2.091   2.851
16416SOL    HW151255   4.722   2.048   2.766
16416SOL    HW251256   4.750   2.013   2.910
16417SOL     OW51257   4.341   3.352   2.358
16417SOL    HW151258   4.385   3.309   2.283
16417SOL    HW251259   4.265   3.394   2.316
16418SOL     OW51260   5.431   2.240   3.239
16418SOL    HW151261   5.500   2.310   3.236
16418SOL    HW251262   5.472   2.169   3.185
16419SOL     OW51263   3.973   3.237   2.133
16419SOL    HW151264   3.876   3.228   2.122
16419SOL    HW251265   3.980   3.261   2.227
16420SOL     OW51266   3.854   2.865   3.561
16420SOL    HW151267   3.780   2.853   3.624
16420SOL    HW251268   3.932   2.837   3.613
16421SOL     OW51269   4.384   2.050   3.356
16421SOL    HW151270   4.472   2.023   3.326
16421SOL    HW251271   4.402   2.077   3.448
16422SOL     OW51272   3.831   2.207   1.866
16422SOL    HW151273   3.735   2.211   1.854
16422SOL    HW251274   3.861   2.279   1.807
16423SOL     OW51275   5.175   2.719   3.254
16423SOL    HW151276   5.135   2.787   3.197
16423SOL    HW251277   5.269   2.745   3.253
16424SOL     OW51278   3.771   2.026   2.159
16424SOL    HW151279   3.760   2.112   2.118
16424SOL    HW251280   3.854   1.994   2.120
16425SOL     OW51281   4.935   3.207   1.976
16425SOL    HW151282   4.849   3.164   1.984
16425SOL    HW251283   4.959   3.221   2.070
16426SOL     OW51284   4.345   2.665   3.302
16426SOL    HW151285   4.392   2.750   3.303
16426SOL    HW251286   4.421   2.604   3.309
16427SOL     OW51287   5.239   3.624   2.819
16427SOL    HW151288   5.263   3.689   2.752
16427SOL    HW251289   5.317   3.623   2.876
16428SOL     OW51290   4.457   2.402   3.563
16428SOL    HW151291   4.484   2.468   3.629
16428SOL    HW251292   4.459   2.317   3.611
16429SOL     OW51293   5.185   3.051   3.492
16429SOL    HW151294   5.179   3.056   3.590
16429SOL    HW251295   5.279   3.071   3.477
16430SOL     OW51296   4.093   3.596   3.423
16430SOL    HW151297   4.010   3.643   3.406
16430SOL    HW251298   4.060   3.511   3.458
16431SOL     OW51299   5.435   2.745   3.101
16431SOL    HW151300   5.413   2.655   3.069
16431SOL    HW251301   5.389   2.803   3.039
16432SOL     OW51302   4.935   2.200   2.344
16432SOL    HW151303   4.998   2.128   2.324
16432SOL    HW251304   4.983   2.250   2.413
16433SOL     OW51305   4.327   2.603   2.516
16433SOL    HW151306   4.345   2.698   2.512
16433SOL    HW251307   4.257   2.593   2.449
16434SOL     OW51308   5.493   2.243   3.500
16434SOL    HW151309   5.469   2.245   3.405
16434SOL    HW251310   5.417   2.197   3.539
16435SOL     OW51311   5.436   2.802   3.361
16435SOL    HW151312   5.463   2.894   3.373
16435SOL    HW251313   5.462   2.784   3.269
16436SOL     OW51314   4.581   3.220   1.892
16436SOL    HW151315   4.551   3.239   1.983
16436SOL    HW251316   4.604   3.308   1.857
16437SOL     OW51317   4.362   3.673   2.778
16437SOL    HW151318   4.349   3.768   2.761
16437SOL    HW251319   4.458   3.664   2.784
16438SOL     OW51320   4.601   2.820   2.714
16438SOL    HW151321   4.641   2.744   2.759
16438SOL    HW251322   4.576   2.878   2.788
16439SOL     OW51323   4.821   2.865   1.968
16439SOL    HW151324   4.789   2.911   1.888
16439SOL    HW251325   4.883   2.801   1.928
16440SOL     OW51326   5.591   3.412   2.702
16440SOL    HW151327   5.501   3.419   2.670
16440SOL    HW251328   5.581   3.354   2.779
16441SOL     OW51329   3.963   3.176   3.734
16441SOL    HW151330   3.885   3.122   3.719
16441SOL    HW251331   3.957   3.192   3.830
16442SOL     OW51332   3.814   3.112   2.524
16442SOL    HW151333   3.795   3.052   2.598
16442SOL    HW251334   3.889   3.069   2.481
16443SOL     OW51335   4.402   3.260   3.484
16443SOL    HW151336   4.324   3.211   3.513
16443SOL    HW251337   4.388   3.346   3.526
16444SOL     OW51338   5.540   2.038   3.101
16444SOL    HW151339   5.544   1.941   3.102
16444SOL    HW251340   5.555   2.056   3.006
16445SOL     OW51341   4.220   2.268   2.418
16445SOL    HW151342   4.209   2.209   2.341
16445SOL    HW251343   4.144   2.244   2.474
16446SOL     OW51344   5.446   3.347   2.941
16446SOL    HW151345   5.358   3.327   2.904
16446SOL    HW251346   5.447   3.289   3.018
16447SOL     OW51347   4.045   2.394   3.149
16447SOL    HW151348   4.117   2.357   3.202
16447SOL    HW251349   4.067   2.369   3.058
16448SOL     OW51350   4.551   3.451   2.537
16448SOL    HW151351   4.538   3.489   2.449
16448SOL    HW251352   4.468   3.404   2.551
16449SOL     OW51353   5.163   2.101   2.959
16449SOL    HW151354   5.164   2.010   2.994
16449SOL    HW251355   5.117   2.149   3.030
16450SOL     OW51356   4.728   1.867   3.010
16450SOL    HW151357   4.688   1.781   2.990
16450SOL    HW251358   4.822   1.839   3.026
16451SOL     OW51359   4.514   3.196   2.176
16451SOL    HW151360   4.481   3.105   2.177
16451SOL    HW251361   4.586   3.193   2.241
16452SOL     OW51362   4.320   3.420   3.132
16452SOL    HW151363   4.323   3.504   3.180
16452SOL    HW251364   4.413   3.413   3.103
16453SOL     OW51365   5.045   1.869   2.051
16453SOL    HW151366   5.046   1.807   1.976
16453SOL    HW251367   4.953   1.856   2.085
16454SOL     OW51368   5.027   2.341   2.570
16454SOL    HW151369   4.940   2.380   2.565
16454SOL    HW251370   5.019   2.285   2.651
16455SOL     OW51371   5.327   2.064   2.734
16455SOL    HW151372   5.257   2.085   2.798
16455SOL    HW251373   5.328   2.143   2.677
16456SOL     OW51374   3.760   2.931   2.167
16456SOL    HW151375   3.853   2.925   2.139
16456SOL    HW251376   3.741   2.838   2.190
16457SOL     OW51377   4.595   3.509   2.191
16457SOL    HW151378   4.518   3.498   2.132
16457SOL    HW251379   4.574   3.591   2.241
16458SOL     OW51380   3.964   2.508   3.858
16458SOL    HW151381   3.873   2.490   3.887
16458SOL    HW251382   3.963   2.485   3.764
16459SOL     OW51383   3.948   2.146   4.723
16459SOL    HW151384   3.971   2.118   4.813
16459SOL    HW251385   3.861   2.102   4.711
16460SOL     OW51386   3.727   2.263   4.347
16460SOL    HW151387   3.648   2.289   4.399
16460SOL    HW251388   3.698   2.177   4.313
16461SOL     OW51389   4.298   3.159   4.923
16461SOL    HW151390   4.208   3.142   4.892
16461SOL    HW251391   4.294   3.254   4.943
16462SOL     OW51392   5.251   3.391   4.420
16462SOL    HW151393   5.225   3.346   4.503
16462SOL    HW251394   5.175   3.379   4.361
16463SOL     OW51395   4.850   2.541   4.425
16463SOL    HW151396   4.885   2.629   4.405
16463SOL    HW251397   4.813   2.555   4.514
16464SOL     OW51398   5.496   2.475   3.956
16464SOL    HW151399   5.478   2.468   3.861
16464SOL    HW251400   5.447   2.400   3.992
16465SOL     OW51401   4.444   3.017   4.748
16465SOL    HW151402   4.394   3.068   4.814
16465SOL    HW251403   4.491   3.088   4.702
16466SOL     OW51404   4.653   2.693   5.573
16466SOL    HW151405   4.566   2.703   5.613
16466SOL    HW251406   4.636   2.704   5.477
16467SOL     OW51407   4.413   2.892   4.375
16467SOL    HW151408   4.473   2.866   4.447
16467SOL    HW251409   4.338   2.932   4.423
16468SOL     OW51410   4.409   3.015   5.529
16468SOL    HW151411   4.450   3.101   5.545
16468SOL    HW251412   4.320   3.041   5.497
16469SOL     OW51413   4.041   3.294   4.796
16469SOL    HW151414   3.971   3.243   4.752
16469SOL    HW251415   4.085   3.344   4.726
16470SOL     OW51416   5.214   3.386   5.078
16470SOL    HW151417   5.251   3.474   5.097
16470SOL    HW251418   5.150   3.375   5.150
16471SOL     OW51419   4.149   2.256   5.264
16471SOL    HW151420   4.223   2.197   5.245
16471SOL    HW251421   4.071   2.204   5.237
16472SOL     OW51422   5.345   2.312   4.465
16472SOL    HW151423   5.268   2.337   4.412
16472SOL    HW251424   5.342   2.377   4.536
16473SOL     OW51425   3.941   3.569   4.199
16473SOL    HW151426   3.967   3.648   4.252
16473SOL    HW251427   4.005   3.575   4.126
16474SOL     OW51428   4.858   3.199   5.366
16474SOL    HW151429   4.889   3.230   5.453
16474SOL    HW251430   4.817   3.114   5.389
16475SOL     OW51431   3.985   3.296   4.256
16475SOL    HW151432   3.973   3.392   4.260
16475SOL    HW251433   3.911   3.264   4.311
16476SOL     OW51434   3.993   2.940   4.616
16476SOL    HW151435   3.992   2.867   4.679
16476SOL    HW251436   3.941   3.008   4.663
16477SOL     OW51437   4.317   3.668   5.115
16477SOL    HW151438   4.262   3.635   5.188
16477SOL    HW251439   4.354   3.751   5.151
16478SOL     OW51440   4.300   2.854   3.845
16478SOL    HW151441   4.348   2.907   3.779
16478SOL    HW251442   4.340   2.887   3.927
16479SOL     OW51443   5.332   1.970   5.215
16479SOL    HW151444   5.318   2.043   5.154
16479SOL    HW251445   5.331   2.015   5.300
16480SOL     OW51446   3.849   2.514   4.290
16480SOL    HW151447   3.814   2.424   4.304
16480SOL    HW251448   3.837   2.555   4.378
16481SOL     OW51449   5.558   3.586   4.044
16481SOL    HW151450   5.636   3.572   4.103
16481SOL    HW251451   5.568   3.680   4.024
16482SOL     OW51452   3.790   3.462   3.839
16482SOL    HW151453   3.775   3.369   3.860
16482SOL    HW251454   3.756   3.506   3.919
16483SOL     OW51455   5.400   2.785   4.382
16483SOL    HW151456   5.480   2.746   4.344
16483SOL    HW251457   5.372   2.844   4.311
16484SOL     OW51458   5.360   2.978   4.165
16484SOL    HW151459   5.450   2.975   4.129
16484SOL    HW251460   5.368   3.050   4.231
16485SOL     OW51461   3.847   2.612   5.314
16485SOL    HW151462   3.939   2.640   5.323
16485SOL    HW251463   3.803   2.688   5.356
16486SOL     OW51464   4.311   3.254   4.484
16486SOL    HW151465   4.279   3.166   4.511
16486SOL    HW251466   4.287   3.251   4.391
16487SOL     OW51467   5.019   3.108   5.140
16487SOL    HW151468   5.051   3.042   5.076
16487SOL    HW251469   5.073   3.088   5.219
16488SOL     OW51470   4.544   1.849   4.230
16488SOL    HW151471   4.577   1.941   4.228
16488SOL    HW251472   4.449   1.862   4.242
16489SOL     OW51473   3.891   2.829   4.963
16489SOL    HW151474   3.975   2.783   4.948
16489SOL    HW251475   3.824   2.764   4.940
16490SOL     OW51476   5.268   2.831   3.915
16490SOL    HW151477   5.189   2.786   3.950
16490SOL    HW251478   5.310   2.862   3.997
16491SOL     OW51479   4.061   2.101   5.523
16491SOL    HW151480   4.112   2.181   5.511
16491SOL    HW251481   3.981   2.135   5.566
16492SOL     OW51482   5.186   3.280   4.661
16492SOL    HW151483   5.132   3.299   4.740
16492SOL    HW251484   5.165   3.185   4.645
16493SOL     OW51485   5.364   3.602   4.320
16493SOL    HW151486   5.355   3.569   4.230
16493SOL    HW251487   5.330   3.526   4.372
16494SOL     OW51488   4.318   2.578   3.992
16494SOL    HW151489   4.312   2.667   3.957
16494SOL    HW251490   4.246   2.576   4.058
16495SOL     OW51491   4.984   2.227   4.660
16495SOL    HW151492   4.899   2.182   4.676
16495SOL    HW251493   5.046   2.173   4.714
16496SOL     OW51494   5.300   3.505   4.037
16496SOL    HW151495   5.393   3.534   4.047
16496SOL    HW251496   5.293   3.505   3.940
16497SOL     OW51497   4.528   2.492   5.184
16497SOL    HW151498   4.516   2.457   5.274
16497SOL    HW251499   4.487   2.423   5.128
16498SOL     OW51500   5.123   2.333   5.400
16498SOL    HW151501   5.132   2.393   5.476
16498SOL    HW251502   5.184   2.261   5.422
16499SOL     OW51503   4.678   2.752   5.295
16499SOL    HW151504   4.716   2.668   5.261
16499SOL    HW251505   4.635   2.787   5.215
16500SOL     OW51506   4.697   2.257   4.955
16500SOL    HW151507   4.604   2.281   4.966
16500SOL    HW251508   4.697   2.207   4.872
16501SOL     OW51509   4.769   2.543   4.136
16501SOL    HW151510   4.785   2.553   4.232
16501SOL    HW251511   4.681   2.500   4.135
16502SOL     OW51512   3.830   2.663   4.515
16502SOL    HW151513   3.901   2.663   4.581
16502SOL    HW251514   3.776   2.738   4.544
16503SOL     OW51515   3.837   3.709   5.294
16503SOL    HW151516   3.849   3.700   5.391
16503SOL    HW251517   3.743   3.691   5.284
16504SOL     OW51518   4.592   2.225   3.934
16504SOL    HW151519   4.628   2.279   3.863
16504SOL    HW251520   4.609   2.136   3.902
16505SOL     OW51521   5.440   2.447   5.562
16505SOL    HW151522   5.406   2.526   5.516
16505SOL    HW251523   5.468   2.393   5.486
16506SOL     OW51524   5.086   3.003   4.279
16506SOL    HW151525   5.172   3.000   4.236
16506SOL    HW251526   5.038   3.066   4.223
16507SOL     OW51527   4.276   2.066   4.626
16507SOL    HW151528   4.281   2.080   4.722
16507SOL    HW251529   4.262   2.155   4.592
16508SOL     OW51530   4.707   3.329   4.216
16508SOL    HW151531   4.786   3.384   4.221
16508SOL    HW251532   4.666   3.346   4.303
16509SOL     OW51533   4.066   3.671   4.582
16509SOL    HW151534   4.111   3.587   4.604
16509SOL    HW251535   4.137   3.736   4.596
16510SOL     OW51536   5.534   2.902   4.610
16510SOL    HW151537   5.489   2.893   4.524
16510SOL    HW251538   5.459   2.908   4.671
16511SOL     OW51539   4.945   3.401   5.211
16511SOL    HW151540   4.926   3.323   5.267
16511SOL    HW251541   4.881   3.391   5.140
16512SOL     OW51542   4.032   2.803   3.982
16512SOL    HW151543   4.106   2.823   3.922
16512SOL    HW251544   4.001   2.719   3.946
16513SOL     OW51545   5.204   2.615   4.446
16513SOL    HW151546   5.202   2.583   4.538
16513SOL    HW251547   5.279   2.676   4.447
16514SOL     OW51548   4.182   3.141   5.450
16514SOL    HW151549   4.148   3.147   5.357
16514SOL    HW251550   4.097   3.148   5.499
16515SOL     OW51551   4.781   3.600   3.966
16515SOL    HW151552   4.859   3.630   4.015
16515SOL    HW251553   4.820   3.578   3.879
16516SOL     OW51554   3.891   2.153   5.223
16516SOL    HW151555   3.819   2.210   5.256
16516SOL    HW251556   3.874   2.070   5.271
16517SOL     OW51557   5.353   3.225   3.814
16517SOL    HW151558   5.311   3.312   3.802
16517SOL    HW251559   5.286   3.162   3.781
16518SOL     OW51560   4.174   3.601   4.048
16518SOL    HW151561   4.225   3.652   4.113
16518SOL    HW251562   4.243   3.570   3.987
16519SOL     OW51563   5.123   2.000   4.163
16519SOL    HW151564   5.121   1.938   4.088
16519SOL    HW251565   5.218   2.002   4.184
16520SOL     OW51566   3.985   3.662   4.961
16520SOL    HW151567   4.039   3.597   5.008
16520SOL    HW251568   3.972   3.619   4.876
16521SOL     OW51569   4.685   3.546   4.630
16521SOL    HW151570   4.775   3.514   4.638
16521SOL    HW251571   4.654   3.505   4.548
16522SOL     OW51572   4.119   2.542   4.187
16522SOL    HW151573   4.138   2.449   4.210
16522SOL    HW251574   4.026   2.548   4.214
16523SOL     OW51575   5.269   2.105   5.453
16523SOL    HW151576   5.265   2.117   5.551
16523SOL    HW251577   5.204   2.035   5.440
16524SOL     OW51578   4.354   1.997   3.821
16524SOL    HW151579   4.423   1.937   3.851
16524SOL    HW251580   4.304   1.941   3.758
16525SOL     OW51581   4.495   2.131   5.461
16525SOL    HW151582   4.573   2.072   5.467
16525SOL    HW251583   4.442   2.101   5.537
16526SOL     OW51584   4.590   3.386   4.915
16526SOL    HW151585   4.588   3.368   4.820
16526SOL    HW251586   4.661   3.328   4.948
16527SOL     OW51587   5.062   2.453   5.154
16527SOL    HW151588   5.103   2.423   5.237
16527SOL    HW251589   5.110   2.536   5.135
16528SOL     OW51590   4.532   3.268   4.644
16528SOL    HW151591   4.620   3.252   4.606
16528SOL    HW251592   4.471   3.255   4.569
16529SOL     OW51593   4.665   2.373   4.631
16529SOL    HW151594   4.639   2.367   4.536
16529SOL    HW251595   4.693   2.282   4.648
16530SOL     OW51596   4.275   1.910   4.224
16530SOL    HW151597   4.199   1.923   4.283
16530SOL    HW251598   4.266   1.987   4.165
16531SOL     OW51599   5.168   3.036   3.751
16531SOL    HW151600   5.195   2.967   3.815
16531SOL    HW251601   5.080   3.062   3.784
16532SOL     OW51602   4.010   1.905   3.910
16532SOL    HW151603   4.070   1.980   3.904
16532SOL    HW251604   4.069   1.838   3.950
16533SOL     OW51605   4.657   2.104   4.212
16533SOL    HW151606   4.637   2.155   4.133
16533SOL    HW251607   4.753   2.121   4.221
16534SOL     OW51608   4.805   2.536   5.197
16534SOL    HW151609   4.751   2.456   5.196
16534SOL    HW251610   4.896   2.501   5.191
16535SOL     OW51611   4.950   3.424   4.521
16535SOL    HW151612   4.947   3.493   4.453
16535SOL    HW251613   5.030   3.448   4.570
16536SOL     OW51614   4.192   3.012   4.459
16536SOL    HW151615   4.119   2.983   4.517
16536SOL    HW251616   4.154   2.994   4.370
16537SOL     OW51617   4.966   3.658   4.300
16537SOL    HW151618   5.021   3.725   4.254
16537SOL    HW251619   4.923   3.711   4.369
16538SOL     OW51620   4.779   2.427   3.739
16538SOL    HW151621   4.723   2.506   3.727
16538SOL    HW251622   4.826   2.445   3.822
16539SOL     OW51623   3.771   2.434   5.116
16539SOL    HW151624   3.866   2.419   5.105
16539SOL    HW251625   3.770   2.507   5.181
16540SOL     OW51626   4.289   2.104   4.897
16540SOL    HW151627   4.334   2.033   4.944
16540SOL    HW251628   4.196   2.089   4.925
16541SOL     OW51629   4.608   2.322   4.381
16541SOL    HW151630   4.556   2.365   4.312
16541SOL    HW251631   4.622   2.233   4.345
16542SOL     OW51632   4.690   1.944   4.501
16542SOL    HW151633   4.686   1.914   4.409
16542SOL    HW251634   4.697   1.860   4.550
16543SOL     OW51635   5.131   3.028   4.607
16543SOL    HW151636   5.066   2.961   4.632
16543SOL    HW251637   5.139   3.016   4.511
16544SOL     OW51638   5.200   2.450   4.693
16544SOL    HW151639   5.142   2.372   4.701
16544SOL    HW251640   5.262   2.440   4.768
16545SOL     OW51641   5.564   2.686   4.116
16545SOL    HW151642   5.615   2.629   4.177
16545SOL    HW251643   5.550   2.625   4.042
16546SOL     OW51644   4.219   3.293   3.851
16546SOL    HW151645   4.137   3.278   3.901
16546SOL    HW251646   4.208   3.233   3.776
16547SOL     OW51647   5.379   3.151   4.372
16547SOL    HW151648   5.476   3.143   4.378
16547SOL    HW251649   5.364   3.242   4.402
16548SOL     OW51650   5.147   2.451   3.820
16548SOL    HW151651   5.078   2.429   3.887
16548SOL    HW251652   5.227   2.440   3.873
16549SOL     OW51653   4.238   2.104   4.044
16549SOL    HW151654   4.289   2.077   3.965
16549SOL    HW251655   4.213   2.195   4.018
16550SOL     OW51656   5.466   3.100   5.314
16550SOL    HW151657   5.552   3.077   5.275
16550SOL    HW251658   5.485   3.189   5.348
16551SOL     OW51659   4.781   3.214   5.047
16551SOL    HW151660   4.706   3.188   5.102
16551SOL    HW251661   4.856   3.170   5.092
16552SOL     OW51662   4.829   3.065   4.812
16552SOL    HW151663   4.790   3.112   4.887
16552SOL    HW251664   4.810   3.125   4.738
16553SOL     OW51665   5.323   2.956   4.789
16553SOL    HW151666   5.324   3.016   4.866
16553SOL    HW251667   5.256   2.998   4.732
16554SOL     OW51668   4.634   1.969   5.123
16554SOL    HW151669   4.664   1.942   5.033
16554SOL    HW251670   4.717   2.004   5.160
16555SOL     OW51671   4.717   2.968   5.460
16555SOL    HW151672   4.630   3.007   5.482
16555SOL    HW251673   4.695   2.905   5.389
16556SOL     OW51674   4.436   2.945   4.092
16556SOL    HW151675   4.418   2.926   4.186
16556SOL    HW251676   4.504   2.878   4.071
16557SOL     OW51677   4.149   2.670   4.986
16557SOL    HW151678   4.218   2.672   5.055
16557SOL    HW251679   4.105   2.585   5.001
16558SOL     OW51680   5.011   2.243   4.995
16558SOL    HW151681   5.026   2.320   5.052
16558SOL    HW251682   4.924   2.262   4.955
16559SOL     OW51683   3.799   3.442   5.080
16559SOL    HW151684   3.802   3.534   5.050
16559SOL    HW251685   3.893   3.419   5.082
16560SOL     OW51686   4.088   2.960   4.222
16560SOL    HW151687   4.092   3.029   4.155
16560SOL    HW251688   4.067   2.881   4.169
16561SOL     OW51689   4.256   2.402   4.566
16561SOL    HW151690   4.282   2.461   4.491
16561SOL    HW251691   4.330   2.415   4.627
16562SOL     OW51692   4.954   3.208   4.108
16562SOL    HW151693   5.003   3.283   4.147
16562SOL    HW251694   4.875   3.204   4.163
16563SOL     OW51695   5.030   3.323   4.882
16563SOL    HW151696   5.098   3.346   4.948
16563SOL    HW251697   4.973   3.263   4.932
16564SOL     OW51698   5.301   2.486   4.191
16564SOL    HW151699   5.256   2.534   4.263
16564SOL    HW251700   5.347   2.557   4.145
16565SOL     OW51701   4.061   3.388   5.039
16565SOL    HW151702   4.047   3.348   4.951
16565SOL    HW251703   4.157   3.407   5.034
16566SOL     OW51704   4.159   2.593   5.349
16566SOL    HW151705   4.218   2.639   5.286
16566SOL    HW251706   4.182   2.500   5.336
16567SOL     OW51707   5.343   2.647   5.407
16567SOL    HW151708   5.249   2.667   5.390
16567SOL    HW251709   5.387   2.703   5.339
16568SOL     OW51710   4.720   1.968   5.485
16568SOL    HW151711   4.781   2.041   5.470
16568SOL    HW251712   4.768   1.894   5.445
16569SOL     OW51713   4.224   1.879   5.482
16569SOL    HW151714   4.178   1.820   5.417
16569SOL    HW251715   4.162   1.954   5.486
16570SOL     OW51716   4.308   2.754   4.764
16570SOL    HW151717   4.341   2.845   4.770
16570SOL    HW251718   4.257   2.743   4.846
16571SOL     OW51719   5.085   2.726   4.738
16571SOL    HW151720   5.000   2.688   4.711
16571SOL    HW251721   5.136   2.646   4.757
16572SOL     OW51722   4.946   2.381   3.994
16572SOL    HW151723   4.950   2.304   4.055
16572SOL    HW251724   4.888   2.440   4.045
16573SOL     OW51725   4.031   2.060   4.973
16573SOL    HW151726   3.976   2.089   5.048
16573SOL    HW251727   4.006   1.965   4.966
16574SOL     OW51728   3.765   3.188   4.983
16574SOL    HW151729   3.804   3.126   5.049
16574SOL    HW251730   3.769   3.273   5.029
16575SOL     OW51731   4.448   2.513   4.774
16575SOL    HW151732   4.527   2.502   4.718
16575SOL    HW251733   4.414   2.602   4.751
16576SOL     OW51734   5.485   2.823   5.582
16576SOL    HW151735   5.435   2.768   5.520
16576SOL    HW251736   5.418   2.849   5.645
16577SOL     OW51737   4.025   1.926   4.331
16577SOL    HW151738   3.995   2.015   4.359
16577SOL    HW251739   4.030   1.879   4.417
16578SOL     OW51740   5.323   2.242   4.064
16578SOL    HW151741   5.353   2.169   4.121
16578SOL    HW251742   5.314   2.316   4.128
16579SOL     OW51743   4.771   2.610   4.689
16579SOL    HW151744   4.756   2.625   4.784
16579SOL    HW251745   4.743   2.517   4.679
16580SOL     OW51746   4.712   3.422   5.438
16580SOL    HW151747   4.702   3.506   5.389
16580SOL    HW251748   4.727   3.360   5.366
16581SOL     OW51749   5.571   3.350   5.333
16581SOL    HW151750   5.583   3.388   5.244
16581SOL    HW251751   5.636   3.398   5.385
16582SOL     OW51752   4.086   2.714   5.575
16582SOL    HW151753   4.124   2.800   5.556
16582SOL    HW251754   4.108   2.663   5.494
16583SOL     OW51755   5.220   2.113   3.841
16583SOL    HW151756   5.152   2.052   3.875
16583SOL    HW251757   5.263   2.147   3.922
16584SOL     OW51758   4.998   2.694   3.744
16584SOL    HW151759   5.064   2.630   3.773
16584SOL    HW251760   5.035   2.725   3.659
16585SOL     OW51761   4.789   3.215   4.576
16585SOL    HW151762   4.809   3.137   4.522
16585SOL    HW251763   4.860   3.278   4.553
16586SOL     OW51764   4.014   2.667   4.716
16586SOL    HW151765   4.109   2.681   4.705
16586SOL    HW251766   4.011   2.573   4.739
16587SOL     OW51767   4.049   2.398   4.732
16587SOL    HW151768   4.019   2.307   4.719
16587SOL    HW251769   4.117   2.408   4.662
16588SOL     OW51770   4.870   2.238   5.412
16588SOL    HW151771   4.829   2.289   5.484
16588SOL    HW251772   4.962   2.273   5.414
16589SOL     OW51773   4.888   2.054   5.217
16589SOL    HW151774   4.886   2.123   5.286
16589SOL    HW251775   4.937   2.098   5.146
16590SOL     OW51776   3.727   3.187   3.920
16590SOL    HW151777   3.636   3.204   3.888
16590SOL    HW251778   3.722   3.094   3.950
16591SOL     OW51779   3.818   3.649   4.668
16591SOL    HW151780   3.786   3.572   4.617
16591SOL    HW251781   3.908   3.661   4.632
16592SOL     OW51782   4.213   3.460   4.648
16592SOL    HW151783   4.284   3.526   4.658
16592SOL    HW251784   4.261   3.386   4.607
16593SOL     OW51785   4.694   2.631   4.954
16593SOL    HW151786   4.744   2.598   5.031
16593SOL    HW251787   4.605   2.602   4.976
16594SOL     OW51788   3.741   2.372   4.835
16594SOL    HW151789   3.822   2.372   4.783
16594SOL    HW251790   3.773   2.400   4.922
16595SOL     OW51791   3.940   2.372   5.425
16595SOL    HW151792   4.002   2.337   5.360
16595SOL    HW251793   3.900   2.448   5.379
16596SOL     OW51794   5.086   2.761   5.370
16596SOL    HW151795   5.123   2.851   5.367
16596SOL    HW251796   5.082   2.739   5.275
16597SOL     OW51797   4.528   2.427   4.103
16597SOL    HW151798   4.535   2.357   4.036
16597SOL    HW251799   4.454   2.481   4.070
16598SOL     OW51800   5.366   2.468   4.908
16598SOL    HW151801   5.351   2.407   4.981
16598SOL    HW251802   5.452   2.438   4.874
16599SOL     OW51803   3.974   3.420   5.450
16599SOL    HW151804   3.962   3.486   5.519
16599SOL    HW251805   3.975   3.337   5.500
16600SOL     OW51806   4.418   2.335   4.986
16600SOL    HW151807   4.369   2.258   4.952
16600SOL    HW251808   4.410   2.400   4.913
16601SOL     OW51809   4.624   3.527   5.187
16601SOL    HW151810   4.649   3.546   5.096
16601SOL    HW251811   4.650   3.610   5.234
16602SOL     OW51812   4.172   2.343   3.933
16602SOL    HW151813   4.235   2.417   3.933
16602SOL    HW251814   4.088   2.391   3.922
16603SOL     OW51815   3.881   3.017   5.153
16603SOL    HW151816   3.863   2.974   5.240
16603SOL    HW251817   3.882   2.942   5.091
16604SOL     OW51818   5.034   2.900   4.948
16604SOL    HW151819   5.064   2.846   4.872
16604SOL    HW251820   4.961   2.950   4.909
16605SOL     OW51821   5.035   2.707   4.017
16605SOL    HW151822   4.958   2.681   4.070
16605SOL    HW251823   5.000   2.712   3.927
16606SOL     OW51824   5.467   3.560   4.901
16606SOL    HW151825   5.499   3.643   4.861
16606SOL    HW251826   5.497   3.492   4.839
16607SOL     OW51827   4.967   3.579   4.807
16607SOL    HW151828   5.052   3.598   4.763
16607SOL    HW251829   4.978   3.486   4.832
16608SOL     OW51830   3.833   3.111   4.742
16608SOL    HW151831   3.804   3.138   4.833
16608SOL    HW251832   3.755   3.060   4.712
16609SOL     OW51833   4.425   3.508   5.447
16609SOL    HW151834   4.384   3.595   5.455
16609SOL    HW251835   4.473   3.515   5.363
16610SOL     OW51836   5.400   2.001   4.217
16610SOL    HW151837   5.479   1.984   4.164
16610SOL    HW251838   5.396   1.920   4.272
16611SOL     OW51839   5.080   3.437   4.198
16611SOL    HW151840   5.154   3.459   4.138
16611SOL    HW251841   5.049   3.526   4.226
16612SOL     OW51842   3.875   3.678   5.563
16612SOL    HW151843   3.835   3.607   5.616
16612SOL    HW251844   3.928   3.724   5.631
16613SOL     OW51845   4.979   2.770   4.378
16613SOL    HW151846   5.060   2.721   4.401
16613SOL    HW251847   5.015   2.852   4.339
16614SOL     OW51848   4.513   3.127   5.140
16614SOL    HW151849   4.493   3.189   5.213
16614SOL    HW251850   4.435   3.138   5.083
16615SOL     OW51851   4.408   3.476   3.884
16615SOL    HW151852   4.418   3.492   3.788
16615SOL    HW251853   4.340   3.405   3.882
16616SOL     OW51854   5.568   2.029   4.699
16616SOL    HW151855   5.590   1.939   4.668
16616SOL    HW251856   5.483   2.047   4.653
16617SOL     OW51857   3.966   2.172   4.424
16617SOL    HW151858   3.879   2.213   4.406
16617SOL    HW251859   3.974   2.181   4.519
16618SOL     OW51860   4.909   3.494   3.750
16618SOL    HW151861   4.922   3.399   3.764
16618SOL    HW251862   4.856   3.498   3.668
16619SOL     OW51863   4.546   2.863   5.094
16619SOL    HW151864   4.594   2.875   5.011
16619SOL    HW251865   4.532   2.956   5.122
16620SOL     OW51866   4.627   2.776   4.002
16620SOL    HW151867   4.701   2.817   3.952
16620SOL    HW251868   4.668   2.698   4.043
16621SOL     OW51869   5.277   3.492   3.758
16621SOL    HW151870   5.182   3.495   3.745
16621SOL    HW251871   5.310   3.492   3.665
16622SOL     OW51872   4.097   3.158   5.202
16622SOL    HW151873   4.075   3.233   5.146
16622SOL    HW251874   4.017   3.102   5.191
16623SOL     OW51875   5.313   3.156   4.992
16623SOL    HW151876   5.384   3.141   5.056
16623SOL    HW251877   5.275   3.239   5.026
16624SOL     OW51878   4.780   2.975   4.442
16624SOL    HW151879   4.710   2.925   4.489
16624SOL    HW251880   4.836   2.903   4.409
16625SOL     OW51881   4.750   2.090   4.716
16625SOL    HW151882   4.728   2.049   4.629
16625SOL    HW251883   4.756   2.011   4.772
16626SOL     OW51884   4.380   3.394   4.188
16626SOL    HW151885   4.394   3.314   4.134
16626SOL    HW251886   4.284   3.407   4.180
16627SOL     OW51887   5.428   2.247   5.111
16627SOL    HW151888   5.494   2.318   5.112
16627SOL    HW251889   5.473   2.179   5.055
16628SOL     OW51890   3.973   3.244   3.997
16628SOL    HW151891   3.877   3.227   3.988
16628SOL    HW251892   3.979   3.267   4.092
16629SOL     OW51893   4.393   2.054   5.210
16629SOL    HW151894   4.479   2.025   5.172
16629SOL    HW251895   4.421   2.090   5.295
16630SOL     OW51896   3.829   2.221   3.762
16630SOL    HW151897   3.735   2.219   3.746
16630SOL    HW251898   3.858   2.291   3.700
16631SOL     OW51899   5.170   2.706   5.108
16631SOL    HW151900   5.127   2.772   5.051
16631SOL    HW251901   5.264   2.727   5.092
16632SOL     OW51902   3.772   2.031   4.028
16632SOL    HW151903   3.769   2.119   3.987
16632SOL    HW251904   3.860   1.999   4.001
16633SOL     OW51905   4.927   3.223   3.830
16633SOL    HW151906   4.842   3.178   3.833
16633SOL    HW251907   4.952   3.225   3.925
16634SOL     OW51908   4.346   2.681   5.165
16634SOL    HW151909   4.401   2.760   5.155
16634SOL    HW251910   4.414   2.611   5.164
16635SOL     OW51911   5.223   3.590   4.698
16635SOL    HW151912   5.275   3.639   4.633
16635SOL    HW251913   5.281   3.592   4.776
16636SOL     OW51914   4.482   2.408   5.437
16636SOL    HW151915   4.480   2.442   5.527
16636SOL    HW251916   4.480   2.311   5.449
16637SOL     OW51917   5.197   3.026   5.349
16637SOL    HW151918   5.184   3.049   5.444
16637SOL    HW251919   5.290   3.053   5.336
16638SOL     OW51920   4.107   3.590   5.285
16638SOL    HW151921   4.022   3.635   5.269
16638SOL    HW251922   4.077   3.510   5.333
16639SOL     OW51923   5.406   2.743   4.952
16639SOL    HW151924   5.397   2.652   4.919
16639SOL    HW251925   5.375   2.797   4.877
16640SOL     OW51926   4.927   2.191   4.193
16640SOL    HW151927   4.995   2.121   4.184
16640SOL    HW251928   4.962   2.242   4.269
16641SOL     OW51929   4.323   2.595   4.372
16641SOL    HW151930   4.350   2.688   4.368
16641SOL    HW251931   4.254   2.590   4.304
16642SOL     OW51932   5.490   2.235   5.370
16642SOL    HW151933   5.463   2.247   5.277
16642SOL    HW251934   5.414   2.186   5.405
16643SOL     OW51935   5.446   2.812   5.231
16643SOL    HW151936   5.468   2.905   5.248
16643SOL    HW251937   5.465   2.802   5.136
16644SOL     OW51938   4.587   3.229   3.751
16644SOL    HW151939   4.550   3.241   3.840
16644SOL    HW251940   4.602   3.320   3.719
16645SOL     OW51941   4.387   3.672   4.610
16645SOL    HW151942   4.373   3.769   4.614
16645SOL    HW251943   4.467   3.661   4.662
16646SOL     OW51944   4.599   2.812   4.574
16646SOL    HW151945   4.642   2.736   4.615
16646SOL    HW251946   4.579   2.868   4.651
16647SOL     OW51947   4.818   2.877   3.827
16647SOL    HW151948   4.782   2.924   3.750
16647SOL    HW251949   4.872   2.809   3.784
16648SOL     OW51950   5.577   3.403   4.545
16648SOL    HW151951   5.492   3.446   4.533
16648SOL    HW251952   5.565   3.362   4.633
16649SOL     OW51953   3.953   3.183   5.581
16649SOL    HW151954   3.899   3.113   5.541
16649SOL    HW251955   3.913   3.189   5.669
16650SOL     OW51956   3.808   3.113   4.381
16650SOL    HW151957   3.799   3.061   4.462
16650SOL    HW251958   3.883   3.069   4.338
16651SOL     OW51959   4.409   3.262   5.353
16651SOL    HW151960   4.326   3.220   5.382
16651SOL    HW251961   4.402   3.351   5.392
16652SOL     OW51962   5.535   2.048   4.961
16652SOL    HW151963   5.538   1.951   4.965
16652SOL    HW251964   5.551   2.061   4.865
16653SOL     OW51965   4.167   2.289   4.264
16653SOL    HW151966   4.204   2.215   4.214
16653SOL    HW251967   4.110   2.247   4.330
16654SOL     OW51968   5.471   3.314   4.793
16654SOL    HW151969   5.376   3.306   4.810
16654SOL    HW251970   5.509   3.269   4.870
16655SOL     OW51971   4.056   2.393   5.016
16655SOL    HW151972   4.128   2.353   5.067
16655SOL    HW251973   4.075   2.366   4.924
16656SOL     OW51974   4.539   3.435   4.397
16656SOL    HW151975   4.483   3.428   4.317
16656SOL    HW251976   4.472   3.428   4.466
16657SOL     OW51977   5.158   2.099   4.817
16657SOL    HW151978   5.183   2.011   4.847
16657SOL    HW251979   5.115   2.139   4.895
16658SOL     OW51980   4.737   1.858   4.880
16658SOL    HW151981   4.687   1.780   4.851
16658SOL    HW251982   4.829   1.822   4.879
16659SOL     OW51983   4.521   3.202   4.029
16659SOL    HW151984   4.485   3.111   4.031
16659SOL    HW251985   4.589   3.196   4.097
16660SOL     OW51986   4.319   3.425   4.978
16660SOL    HW151987   4.321   3.515   5.017
16660SOL    HW251988   4.415   3.410   4.971
16661SOL     OW51989   5.030   1.898   3.886
16661SOL    HW151990   5.042   1.820   3.831
16661SOL    HW251991   4.944   1.876   3.929
16662SOL     OW51992   5.015   2.326   4.406
16662SOL    HW151993   4.959   2.405   4.406
16662SOL    HW251994   4.997   2.289   4.494
16663SOL     OW51995   5.333   2.070   4.582
16663SOL    HW151996   5.257   2.067   4.642
16663SOL    HW251997   5.328   2.158   4.542
16664SOL     OW51998   3.761   2.928   4.023
16664SOL    HW151999   3.854   2.919   4.001
16664SOL    HW252000   3.741   2.837   4.055
16665SOL     OW52001   3.949   2.480   5.716
16665SOL    HW152002   3.859   2.502   5.741
16665SOL    HW252003   3.954   2.500   5.622
16666SOL     OW52004   3.954   2.135   6.577
16666SOL    HW152005   3.974   2.116   6.671
16666SOL    HW252006   3.865   2.097   6.569
16667SOL     OW52007   3.732   2.267   6.209
16667SOL    HW152008   3.652   2.292   6.260
16667SOL    HW252009   3.702   2.186   6.166
16668SOL     OW52010   4.296   3.164   6.778
16668SOL    HW152011   4.206   3.155   6.744
16668SOL    HW252012   4.302   3.260   6.796
16669SOL     OW52013   5.296   3.358   6.287
16669SOL    HW152014   5.253   3.361   6.375
16669SOL    HW252015   5.220   3.364   6.226
16670SOL     OW52016   4.842   2.550   6.300
16670SOL    HW152017   4.884   2.634   6.273
16670SOL    HW252018   4.809   2.572   6.389
16671SOL     OW52019   5.501   2.449   5.820
16671SOL    HW152020   5.482   2.451   5.724
16671SOL    HW252021   5.446   2.375   5.850
16672SOL     OW52022   4.435   3.011   6.613
16672SOL    HW152023   4.384   3.063   6.679
16672SOL    HW252024   4.478   3.084   6.565
16673SOL     OW52025   4.605   2.614   7.388
16673SOL    HW152026   4.576   2.677   7.455
16673SOL    HW252027   4.624   2.671   7.311
16674SOL     OW52028   4.413   2.896   6.234
16674SOL    HW152029   4.474   2.872   6.307
16674SOL    HW252030   4.339   2.938   6.282
16675SOL     OW52031   4.436   3.016   7.395
16675SOL    HW152032   4.480   3.098   7.424
16675SOL    HW252033   4.357   3.051   7.350
16676SOL     OW52034   4.043   3.306   6.662
16676SOL    HW152035   3.973   3.258   6.613
16676SOL    HW252036   4.094   3.350   6.592
16677SOL     OW52037   5.199   3.341   6.966
16677SOL    HW152038   5.249   3.425   6.968
16677SOL    HW252039   5.125   3.362   7.024
16678SOL     OW52040   4.159   2.257   7.114
16678SOL    HW152041   4.234   2.198   7.102
16678SOL    HW252042   4.083   2.202   7.089
16679SOL     OW52043   5.348   2.314   6.328
16679SOL    HW152044   5.270   2.334   6.274
16679SOL    HW252045   5.340   2.382   6.397
16680SOL     OW52046   3.947   3.587   6.061
16680SOL    HW152047   3.976   3.667   6.110
16680SOL    HW252048   4.013   3.585   5.990
16681SOL     OW52049   4.848   3.201   7.237
16681SOL    HW152050   4.886   3.212   7.325
16681SOL    HW252051   4.806   3.114   7.245
16682SOL     OW52052   3.980   3.303   6.118
16682SOL    HW152053   3.974   3.400   6.125
16682SOL    HW252054   3.909   3.273   6.177
16683SOL     OW52055   3.990   2.940   6.484
16683SOL    HW152056   3.995   2.865   6.545
16683SOL    HW252057   3.940   3.006   6.535
16684SOL     OW52058   4.315   3.656   6.992
16684SOL    HW152059   4.243   3.630   7.051
16684SOL    HW252060   4.341   3.743   7.027
16685SOL     OW52061   4.344   2.839   5.716
16685SOL    HW152062   4.371   2.900   5.644
16685SOL    HW252063   4.370   2.890   5.795
16686SOL     OW52064   5.322   1.980   7.078
16686SOL    HW152065   5.319   2.064   7.031
16686SOL    HW252066   5.347   2.007   7.168
16687SOL     OW52067   3.840   2.518   6.151
16687SOL    HW152068   3.812   2.426   6.165
16687SOL    HW252069   3.833   2.556   6.241
16688SOL     OW52070   5.589   3.616   5.966
16688SOL    HW152071   5.653   3.585   6.031
16688SOL    HW252072   5.607   3.711   5.962
16689SOL     OW52073   3.787   3.467   5.705
16689SOL    HW152074   3.786   3.373   5.730
16689SOL    HW252075   3.757   3.510   5.787
16690SOL     OW52076   5.405   2.775   6.236
16690SOL    HW152077   5.483   2.740   6.189
16690SOL    HW252078   5.370   2.837   6.170
16691SOL     OW52079   5.362   2.975   6.029
16691SOL    HW152080   5.452   2.971   5.993
16691SOL    HW252081   5.373   3.039   6.103
16692SOL     OW52082   3.844   2.603   7.167
16692SOL    HW152083   3.937   2.628   7.168
16692SOL    HW252084   3.803   2.681   7.206
16693SOL     OW52085   4.303   3.256   6.343
16693SOL    HW152086   4.268   3.165   6.353
16693SOL    HW252087   4.295   3.268   6.246
16694SOL     OW52088   5.017   3.092   7.007
16694SOL    HW152089   5.040   3.019   6.948
16694SOL    HW252090   5.074   3.077   7.084
16695SOL     OW52091   4.563   1.863   6.083
16695SOL    HW152092   4.590   1.957   6.074
16695SOL    HW252093   4.467   1.870   6.090
16696SOL     OW52094   3.902   2.847   6.845
16696SOL    HW152095   3.993   2.815   6.836
16696SOL    HW252096   3.851   2.777   6.804
16697SOL     OW52097   5.259   2.865   5.785
16697SOL    HW152098   5.182   2.818   5.824
16697SOL    HW252099   5.305   2.895   5.865
16698SOL     OW52100   4.900   3.674   7.200
16698SOL    HW152101   4.909   3.747   7.136
16698SOL    HW252102   4.923   3.596   7.145
16699SOL     OW52103   4.056   2.091   7.369
16699SOL    HW152104   4.106   2.173   7.379
16699SOL    HW252105   3.970   2.115   7.406
16700SOL     OW52106   5.203   3.301   6.541
16700SOL    HW152107   5.142   3.322   6.614
16700SOL    HW252108   5.172   3.212   6.513
16701SOL     OW52109   5.385   3.603   6.203
16701SOL    HW152110   5.367   3.593   6.108
16701SOL    HW252111   5.365   3.515   6.238
16702SOL     OW52112   4.304   2.588   5.835
16702SOL    HW152113   4.305   2.674   5.789
16702SOL    HW252114   4.231   2.600   5.898
16703SOL     OW52115   4.995   2.203   6.505
16703SOL    HW152116   4.908   2.166   6.528
16703SOL    HW252117   5.053   2.158   6.571
16704SOL     OW52118   5.334   3.519   5.929
16704SOL    HW152119   5.426   3.552   5.933
16704SOL    HW252120   5.321   3.506   5.834
16705SOL     OW52121   4.533   2.489   7.050
16705SOL    HW152122   4.512   2.451   7.138
16705SOL    HW252123   4.488   2.426   6.991
16706SOL     OW52124   5.124   2.346   7.252
16706SOL    HW152125   5.125   2.405   7.330
16706SOL    HW252126   5.179   2.271   7.281
16707SOL     OW52127   4.690   2.759   7.166
16707SOL    HW152128   4.731   2.677   7.132
16707SOL    HW252129   4.642   2.791   7.086
16708SOL     OW52130   4.697   2.263   6.819
16708SOL    HW152131   4.605   2.284   6.842
16708SOL    HW252132   4.688   2.193   6.753
16709SOL     OW52133   4.763   2.545   5.998
16709SOL    HW152134   4.774   2.558   6.094
16709SOL    HW252135   4.674   2.503   5.993
16710SOL     OW52136   3.828   2.664   6.378
16710SOL    HW152137   3.900   2.672   6.444
16710SOL    HW252138   3.784   2.750   6.388
16711SOL     OW52139   3.825   3.703   7.151
16711SOL    HW152140   3.844   3.686   7.246
16711SOL    HW252141   3.729   3.701   7.148
16712SOL     OW52142   4.596   2.210   5.806
16712SOL    HW152143   4.635   2.267   5.738
16712SOL    HW252144   4.604   2.124   5.764
16713SOL     OW52145   5.448   2.453   7.429
16713SOL    HW152146   5.408   2.530   7.383
16713SOL    HW252147   5.471   2.397   7.354
16714SOL     OW52148   5.086   3.010   6.136
16714SOL    HW152149   5.170   3.007   6.086
16714SOL    HW252150   5.036   3.075   6.085
16715SOL     OW52151   4.275   2.060   6.483
16715SOL    HW152152   4.284   2.073   6.579
16715SOL    HW252153   4.259   2.150   6.451
16716SOL     OW52154   4.702   3.303   6.079
16716SOL    HW152155   4.666   3.377   6.027
16716SOL    HW252156   4.702   3.337   6.169
16717SOL     OW52157   4.063   3.669   6.441
16717SOL    HW152158   4.111   3.585   6.455
16717SOL    HW252159   4.132   3.735   6.460
16718SOL     OW52160   5.542   2.912   6.455
16718SOL    HW152161   5.489   2.895   6.376
16718SOL    HW252162   5.474   2.908   6.525
16719SOL     OW52163   4.944   3.430   7.076
16719SOL    HW152164   4.915   3.365   7.141
16719SOL    HW252165   4.901   3.397   6.996
16720SOL     OW52166   4.031   2.812   5.845
16720SOL    HW152167   4.098   2.855   5.792
16720SOL    HW252168   4.005   2.739   5.786
16721SOL     OW52169   5.196   2.609   6.289
16721SOL    HW152170   5.189   2.580   6.381
16721SOL    HW252171   5.274   2.668   6.292
16722SOL     OW52172   4.191   3.124   7.303
16722SOL    HW152173   4.144   3.132   7.216
16722SOL    HW252174   4.116   3.128   7.364
16723SOL     OW52175   3.899   2.154   7.080
16723SOL    HW152176   3.823   2.210   7.102
16723SOL    HW252177   3.877   2.070   7.125
16724SOL     OW52178   5.376   3.237   5.657
16724SOL    HW152179   5.330   3.322   5.643
16724SOL    HW252180   5.311   3.173   5.622
16725SOL     OW52181   4.179   3.600   5.909
16725SOL    HW152182   4.224   3.653   5.980
16725SOL    HW252183   4.251   3.590   5.845
16726SOL     OW52184   5.120   2.002   6.035
16726SOL    HW152185   5.109   1.949   5.954
16726SOL    HW252186   5.216   2.005   6.045
16727SOL     OW52187   3.963   3.652   6.821
16727SOL    HW152188   4.023   3.586   6.858
16727SOL    HW252189   3.955   3.624   6.729
16728SOL     OW52190   4.665   3.520   6.505
16728SOL    HW152191   4.758   3.522   6.476
16728SOL    HW252192   4.620   3.495   6.421
16729SOL     OW52193   4.106   2.563   6.044
16729SOL    HW152194   4.130   2.470   6.061
16729SOL    HW252195   4.011   2.561   6.067
16730SOL     OW52196   5.263   2.120   7.317
16730SOL    HW152197   5.258   2.119   7.415
16730SOL    HW252198   5.206   2.045   7.295
16731SOL     OW52199   4.364   2.004   5.673
16731SOL    HW152200   4.423   1.938   5.711
16731SOL    HW252201   4.310   1.950   5.611
16732SOL     OW52202   4.498   2.119   7.323
16732SOL    HW152203   4.576   2.061   7.335
16732SOL    HW252204   4.444   2.099   7.401
16733SOL     OW52205   4.603   3.393   6.790
16733SOL    HW152206   4.605   3.395   6.693
16733SOL    HW252207   4.673   3.330   6.813
16734SOL     OW52208   5.058   2.458   7.013
16734SOL    HW152209   5.096   2.422   7.096
16734SOL    HW252210   5.110   2.538   6.996
16735SOL     OW52211   4.520   3.244   6.507
16735SOL    HW152212   4.606   3.258   6.464
16735SOL    HW252213   4.456   3.259   6.436
16736SOL     OW52214   4.665   2.388   6.503
16736SOL    HW152215   4.638   2.375   6.410
16736SOL    HW252216   4.696   2.298   6.526
16737SOL     OW52217   4.288   1.904   6.089
16737SOL    HW152218   4.208   1.910   6.144
16737SOL    HW252219   4.278   1.984   6.033
16738SOL     OW52220   5.168   3.058   5.616
16738SOL    HW152221   5.198   2.990   5.679
16738SOL    HW252222   5.083   3.087   5.653
16739SOL     OW52223   4.011   1.898   5.775
16739SOL    HW152224   4.069   1.972   5.752
16739SOL    HW252225   4.073   1.837   5.818
16740SOL     OW52226   4.657   2.120   6.075
16740SOL    HW152227   4.639   2.162   5.990
16740SOL    HW252228   4.753   2.133   6.083
16741SOL     OW52229   4.816   2.551   7.060
16741SOL    HW152230   4.762   2.471   7.057
16741SOL    HW252231   4.907   2.518   7.043
16742SOL     OW52232   4.966   3.409   6.363
16742SOL    HW152233   4.969   3.482   6.298
16742SOL    HW252234   5.033   3.438   6.425
16743SOL     OW52235   4.193   3.013   6.324
16743SOL    HW152236   4.121   2.984   6.384
16743SOL    HW252237   4.152   2.995   6.236
16744SOL     OW52238   5.014   3.616   6.205
16744SOL    HW152239   5.059   3.676   6.143
16744SOL    HW252240   4.961   3.677   6.260
16745SOL     OW52241   4.788   2.402   5.616
16745SOL    HW152242   4.747   2.489   5.605
16745SOL    HW252243   4.857   2.417   5.682
16746SOL     OW52244   3.786   2.419   6.981
16746SOL    HW152245   3.882   2.404   6.970
16746SOL    HW252246   3.784   2.497   7.040
16747SOL     OW52247   4.295   2.090   6.753
16747SOL    HW152248   4.339   2.020   6.801
16747SOL    HW252249   4.202   2.077   6.780
16748SOL     OW52250   4.599   2.328   6.255
16748SOL    HW152251   4.551   2.377   6.188
16748SOL    HW252252   4.615   2.243   6.211
16749SOL     OW52253   4.762   1.927   6.349
16749SOL    HW152254   4.704   1.915   6.272
16749SOL    HW252255   4.738   1.849   6.404
16750SOL     OW52256   5.150   3.058   6.457
16750SOL    HW152257   5.079   2.993   6.457
16750SOL    HW252258   5.179   3.055   6.364
16751SOL     OW52259   5.202   2.442   6.558
16751SOL    HW152260   5.143   2.369   6.579
16751SOL    HW252261   5.266   2.442   6.632
16752SOL     OW52262   5.553   2.674   5.992
16752SOL    HW152263   5.615   2.618   6.043
16752SOL    HW252264   5.544   2.622   5.910
16753SOL     OW52265   4.216   3.288   5.704
16753SOL    HW152266   4.141   3.270   5.764
16753SOL    HW252267   4.196   3.231   5.629
16754SOL     OW52268   5.391   3.102   6.265
16754SOL    HW152269   5.489   3.110   6.261
16754SOL    HW252270   5.363   3.195   6.275
16755SOL     OW52271   5.122   2.460   5.655
16755SOL    HW152272   5.080   2.421   5.735
16755SOL    HW252273   5.216   2.453   5.676
16756SOL     OW52274   4.247   2.094   5.900
16756SOL    HW152275   4.289   2.067   5.816
16756SOL    HW252276   4.216   2.184   5.875
16757SOL     OW52277   5.452   3.088   7.176
16757SOL    HW152278   5.539   3.046   7.165
16757SOL    HW252279   5.476   3.182   7.168
16758SOL     OW52280   4.797   3.227   6.919
16758SOL    HW152281   4.719   3.194   6.968
16758SOL    HW252282   4.870   3.180   6.966
16759SOL     OW52283   5.329   3.481   7.212
16759SOL    HW152284   5.326   3.520   7.123
16759SOL    HW252285   5.418   3.440   7.212
16760SOL     OW52286   4.838   3.085   6.681
16760SOL    HW152287   4.793   3.134   6.750
16760SOL    HW252288   4.813   3.132   6.600
16761SOL     OW52289   5.328   2.949   6.646
16761SOL    HW152290   5.329   3.009   6.724
16761SOL    HW252291   5.274   2.999   6.582
16762SOL     OW52292   4.640   1.967   6.987
16762SOL    HW152293   4.671   1.941   6.898
16762SOL    HW252294   4.720   2.007   7.025
16763SOL     OW52295   4.731   2.972   7.336
16763SOL    HW152296   4.640   3.004   7.349
16763SOL    HW252297   4.719   2.902   7.268
16764SOL     OW52298   4.453   2.926   5.949
16764SOL    HW152299   4.421   2.911   6.039
16764SOL    HW252300   4.514   2.852   5.936
16765SOL     OW52301   4.146   2.674   6.849
16765SOL    HW152302   4.219   2.672   6.915
16765SOL    HW252303   4.103   2.588   6.861
16766SOL     OW52304   5.007   2.252   6.848
16766SOL    HW152305   5.026   2.328   6.905
16766SOL    HW252306   4.917   2.271   6.817
16767SOL     OW52307   3.797   3.427   6.925
16767SOL    HW152308   3.796   3.520   6.900
16767SOL    HW252309   3.893   3.408   6.926
16768SOL     OW52310   4.080   2.957   6.088
16768SOL    HW152311   4.103   3.026   6.025
16768SOL    HW252312   4.061   2.882   6.030
16769SOL     OW52313   4.256   2.403   6.442
16769SOL    HW152314   4.289   2.463   6.372
16769SOL    HW252315   4.314   2.424   6.516
16770SOL     OW52316   4.955   3.205   5.962
16770SOL    HW152317   5.018   3.274   5.992
16770SOL    HW252318   4.871   3.238   5.998
16771SOL     OW52319   5.038   3.336   6.750
16771SOL    HW152320   5.096   3.330   6.829
16771SOL    HW252321   4.968   3.272   6.771
16772SOL     OW52322   5.296   2.472   6.047
16772SOL    HW152323   5.263   2.527   6.119
16772SOL    HW252324   5.353   2.533   5.998
16773SOL     OW52325   4.062   3.375   6.909
16773SOL    HW152326   4.052   3.344   6.817
16773SOL    HW252327   4.157   3.399   6.907
16774SOL     OW52328   4.163   2.587   7.208
16774SOL    HW152329   4.219   2.632   7.143
16774SOL    HW252330   4.195   2.496   7.201
16775SOL     OW52331   5.348   2.645   7.272
16775SOL    HW152332   5.257   2.677   7.264
16775SOL    HW252333   5.391   2.687   7.194
16776SOL     OW52334   4.725   1.972   7.348
16776SOL    HW152335   4.785   2.045   7.333
16776SOL    HW252336   4.776   1.898   7.310
16777SOL     OW52337   4.225   1.876   7.341
16777SOL    HW152338   4.182   1.818   7.275
16777SOL    HW252339   4.163   1.951   7.343
16778SOL     OW52340   4.292   2.758   6.614
16778SOL    HW152341   4.337   2.844   6.619
16778SOL    HW252342   4.247   2.751   6.700
16779SOL     OW52343   5.087   2.712   6.607
16779SOL    HW152344   5.000   2.686   6.577
16779SOL    HW252345   5.133   2.627   6.611
16780SOL     OW52346   4.953   2.392   5.859
16780SOL    HW152347   4.957   2.313   5.918
16780SOL    HW252348   4.886   2.445   5.906
16781SOL     OW52349   4.026   2.059   6.832
16781SOL    HW152350   3.976   2.087   6.910
16781SOL    HW252351   4.002   1.964   6.827
16782SOL     OW52352   3.743   3.161   6.869
16782SOL    HW152353   3.780   3.102   6.938
16782SOL    HW252354   3.767   3.249   6.900
16783SOL     OW52355   4.442   2.510   6.636
16783SOL    HW152356   4.522   2.487   6.585
16783SOL    HW252357   4.420   2.601   6.610
16784SOL     OW52358   5.492   2.817   7.434
16784SOL    HW152359   5.449   2.760   7.367
16784SOL    HW252360   5.424   2.818   7.503
16785SOL     OW52361   4.033   1.924   6.197
16785SOL    HW152362   4.007   2.016   6.218
16785SOL    HW252363   4.033   1.883   6.285
16786SOL     OW52364   5.334   2.236   5.929
16786SOL    HW152365   5.356   2.168   5.994
16786SOL    HW252366   5.316   2.315   5.985
16787SOL     OW52367   4.772   2.623   6.563
16787SOL    HW152368   4.754   2.635   6.659
16787SOL    HW252369   4.745   2.529   6.551
16788SOL     OW52370   4.707   3.421   7.301
16788SOL    HW152371   4.689   3.479   7.223
16788SOL    HW252372   4.726   3.336   7.258
16789SOL     OW52373   5.569   3.360   7.191
16789SOL    HW152374   5.589   3.380   7.098
16789SOL    HW252375   5.652   3.385   7.235
16790SOL     OW52376   4.075   2.761   7.384
16790SOL    HW152377   4.156   2.783   7.434
16790SOL    HW252378   4.104   2.685   7.330
16791SOL     OW52379   5.229   2.116   5.711
16791SOL    HW152380   5.166   2.053   5.749
16791SOL    HW252381   5.271   2.157   5.789
16792SOL     OW52382   4.995   2.688   5.609
16792SOL    HW152383   5.037   2.602   5.626
16792SOL    HW252384   5.031   2.706   5.519
16793SOL     OW52385   4.789   3.222   6.428
16793SOL    HW152386   4.799   3.144   6.371
16793SOL    HW252387   4.859   3.284   6.398
16794SOL     OW52388   4.009   2.682   6.590
16794SOL    HW152389   4.103   2.694   6.569
16794SOL    HW252390   4.007   2.589   6.617
16795SOL     OW52391   4.037   2.397   6.592
16795SOL    HW152392   4.011   2.304   6.576
16795SOL    HW252393   4.106   2.410   6.523
16796SOL     OW52394   4.885   2.224   7.284
16796SOL    HW152395   4.834   2.277   7.349
16796SOL    HW252396   4.968   2.275   7.279
16797SOL     OW52397   4.892   2.060   7.069
16797SOL    HW152398   4.893   2.123   7.143
16797SOL    HW252399   4.937   2.110   6.999
16798SOL     OW52400   3.744   3.188   5.781
16798SOL    HW152401   3.655   3.208   5.743
16798SOL    HW252402   3.730   3.097   5.812
16799SOL     OW52403   3.817   3.640   6.537
16799SOL    HW152404   3.787   3.569   6.477
16799SOL    HW252405   3.907   3.658   6.502
16800SOL     OW52406   4.215   3.451   6.508
16800SOL    HW152407   4.283   3.521   6.522
16800SOL    HW252408   4.264   3.386   6.456
16801SOL     OW52409   4.705   2.637   6.825
16801SOL    HW152410   4.757   2.609   6.903
16801SOL    HW252411   4.616   2.612   6.852
16802SOL     OW52412   3.750   2.377   6.700
16802SOL    HW152413   3.829   2.374   6.645
16802SOL    HW252414   3.785   2.403   6.786
16803SOL     OW52415   3.941   2.375   7.300
16803SOL    HW152416   3.996   2.334   7.231
16803SOL    HW252417   3.894   2.445   7.252
16804SOL     OW52418   5.099   2.772   7.227
16804SOL    HW152419   5.124   2.866   7.225
16804SOL    HW252420   5.094   2.750   7.132
16805SOL     OW52421   4.519   2.450   5.951
16805SOL    HW152422   4.523   2.370   5.897
16805SOL    HW252423   4.436   2.492   5.922
16806SOL     OW52424   5.362   2.475   6.777
16806SOL    HW152425   5.345   2.416   6.851
16806SOL    HW252426   5.449   2.443   6.744
16807SOL     OW52427   3.975   3.401   7.303
16807SOL    HW152428   3.959   3.463   7.375
16807SOL    HW252429   3.986   3.317   7.351
16808SOL     OW52430   4.415   2.337   6.851
16808SOL    HW152431   4.367   2.261   6.816
16808SOL    HW252432   4.411   2.401   6.777
16809SOL     OW52433   4.645   3.548   7.063
16809SOL    HW152434   4.635   3.513   6.973
16809SOL    HW252435   4.640   3.644   7.049
16810SOL     OW52436   4.171   2.344   5.793
16810SOL    HW152437   4.224   2.425   5.793
16810SOL    HW252438   4.082   2.381   5.774
16811SOL     OW52439   3.835   2.994   7.057
16811SOL    HW152440   3.847   2.939   7.138
16811SOL    HW252441   3.856   2.929   6.986
16812SOL     OW52442   5.036   2.901   6.816
16812SOL    HW152443   5.060   2.848   6.737
16812SOL    HW252444   4.969   2.962   6.778
16813SOL     OW52445   5.028   2.743   5.882
16813SOL    HW152446   4.971   2.690   5.940
16813SOL    HW252447   5.018   2.702   5.795
16814SOL     OW52448   5.475   3.607   6.715
16814SOL    HW152449   5.547   3.632   6.654
16814SOL    HW252450   5.472   3.511   6.701
16815SOL     OW52451   4.987   3.600   6.677
16815SOL    HW152452   5.065   3.621   6.622
16815SOL    HW252453   5.002   3.508   6.702
16816SOL     OW52454   3.837   3.118   6.616
16816SOL    HW152455   3.800   3.129   6.706
16816SOL    HW252456   3.764   3.074   6.570
16817SOL     OW52457   4.412   3.507   7.324
16817SOL    HW152458   4.355   3.585   7.319
16817SOL    HW252459   4.475   3.523   7.252
16818SOL     OW52460   5.399   1.998   6.079
16818SOL    HW152461   5.484   1.993   6.033
16818SOL    HW252462   5.401   1.917   6.134
16819SOL     OW52463   5.109   3.409   6.055
16819SOL    HW152464   5.183   3.451   6.008
16819SOL    HW252465   5.065   3.486   6.096
16820SOL     OW52466   3.876   3.662   7.412
16820SOL    HW152467   3.834   3.590   7.464
16820SOL    HW252468   3.924   3.708   7.483
16821SOL     OW52469   4.976   2.775   6.229
16821SOL    HW152470   5.056   2.725   6.252
16821SOL    HW252471   5.014   2.858   6.194
16822SOL     OW52472   4.546   3.129   7.025
16822SOL    HW152473   4.509   3.174   7.104
16822SOL    HW252474   4.482   3.157   6.958
16823SOL     OW52475   4.397   3.479   5.745
16823SOL    HW152476   4.404   3.502   5.651
16823SOL    HW252477   4.333   3.405   5.741
16824SOL     OW52478   5.341   3.578   6.962
16824SOL    HW152479   5.388   3.600   6.879
16824SOL    HW252480   5.328   3.667   7.002
16825SOL     OW52481   5.567   2.016   6.554
16825SOL    HW152482   5.587   1.926   6.522
16825SOL    HW252483   5.481   2.036   6.511
16826SOL     OW52484   3.980   2.182   6.288
16826SOL    HW152485   3.894   2.224   6.272
16826SOL    HW252486   3.987   2.185   6.384
16827SOL     OW52487   4.937   3.372   5.580
16827SOL    HW152488   4.908   3.362   5.671
16827SOL    HW252489   4.855   3.399   5.534
16828SOL     OW52490   4.545   2.864   6.964
16828SOL    HW152491   4.592   2.874   6.880
16828SOL    HW252492   4.545   2.955   6.999
16829SOL     OW52493   4.686   2.792   5.862
16829SOL    HW152494   4.740   2.840   5.925
16829SOL    HW252495   4.685   2.701   5.896
16830SOL     OW52496   5.270   3.475   5.620
16830SOL    HW152497   5.176   3.501   5.619
16830SOL    HW252498   5.295   3.495   5.528
16831SOL     OW52499   4.062   3.141   7.072
16831SOL    HW152500   4.051   3.215   7.010
16831SOL    HW252501   3.979   3.090   7.061
16832SOL     OW52502   5.333   3.132   6.855
16832SOL    HW152503   5.420   3.144   6.895
16832SOL    HW252504   5.276   3.193   6.905
16833SOL     OW52505   4.779   2.967   6.311
16833SOL    HW152506   4.709   2.917   6.355
16833SOL    HW252507   4.832   2.898   6.269
16834SOL     OW52508   4.756   2.090   6.569
16834SOL    HW152509   4.749   2.047   6.481
16834SOL    HW252510   4.754   2.013   6.628
16835SOL     OW52511   4.327   3.332   6.080
16835SOL    HW152512   4.379   3.297   6.006
16835SOL    HW252513   4.280   3.406   6.039
16836SOL     OW52514   5.429   2.239   6.964
16836SOL    HW152515   5.495   2.311   6.964
16836SOL    HW252516   5.475   2.171   6.910
16837SOL     OW52517   3.996   3.216   5.872
16837SOL    HW152518   3.903   3.194   5.857
16837SOL    HW252519   3.993   3.253   5.963
16838SOL     OW52520   3.852   2.869   7.286
16838SOL    HW152521   3.780   2.857   7.350
16838SOL    HW252522   3.932   2.836   7.334
16839SOL     OW52523   4.399   2.052   7.073
16839SOL    HW152524   4.486   2.024   7.039
16839SOL    HW252525   4.423   2.087   7.161
16840SOL     OW52526   3.820   2.206   5.623
16840SOL    HW152527   3.726   2.203   5.599
16840SOL    HW252528   3.850   2.283   5.572
16841SOL     OW52529   5.171   2.721   6.975
16841SOL    HW152530   5.126   2.782   6.913
16841SOL    HW252531   5.264   2.740   6.956
16842SOL     OW52532   3.771   2.028   5.882
16842SOL    HW152533   3.767   2.116   5.842
16842SOL    HW252534   3.852   1.993   5.843
16843SOL     OW52535   4.896   3.103   5.714
16843SOL    HW152536   4.809   3.142   5.697
16843SOL    HW252537   4.917   3.138   5.803
16844SOL     OW52538   4.348   2.678   7.021
16844SOL    HW152539   4.402   2.759   7.013
16844SOL    HW252540   4.419   2.612   7.031
16845SOL     OW52541   5.235   3.602   6.523
16845SOL    HW152542   5.264   3.661   6.453
16845SOL    HW252543   5.305   3.612   6.590
16846SOL     OW52544   4.460   2.397   7.285
16846SOL    HW152545   4.495   2.461   7.350
16846SOL    HW252546   4.474   2.311   7.326
16847SOL     OW52547   5.183   3.038   7.222
16847SOL    HW152548   5.180   3.043   7.319
16847SOL    HW252549   5.276   3.059   7.202
16848SOL     OW52550   4.093   3.597   7.150
16848SOL    HW152551   4.007   3.639   7.131
16848SOL    HW252552   4.065   3.513   7.191
16849SOL     OW52553   5.415   2.741   6.820
16849SOL    HW152554   5.395   2.652   6.787
16849SOL    HW252555   5.384   2.799   6.748
16850SOL     OW52556   4.926   2.195   6.059
16850SOL    HW152557   4.993   2.124   6.054
16850SOL    HW252558   4.958   2.247   6.135
16851SOL     OW52559   4.306   2.606   6.251
16851SOL    HW152560   4.334   2.698   6.243
16851SOL    HW252561   4.234   2.601   6.185
16852SOL     OW52562   5.493   2.225   7.228
16852SOL    HW152563   5.462   2.240   7.137
16852SOL    HW252564   5.415   2.182   7.267
16853SOL     OW52565   5.462   2.804   7.084
16853SOL    HW152566   5.461   2.899   7.072
16853SOL    HW252567   5.470   2.771   6.993
16854SOL     OW52568   4.624   3.213   5.634
16854SOL    HW152569   4.566   3.233   5.709
16854SOL    HW252570   4.617   3.293   5.578
16855SOL     OW52571   4.368   3.666   6.503
16855SOL    HW152572   4.353   3.760   6.481
16855SOL    HW252573   4.463   3.663   6.519
16856SOL     OW52574   4.593   2.805   6.430
16856SOL    HW152575   4.647   2.737   6.474
16856SOL    HW252576   4.571   2.865   6.504
16857SOL     OW52577   5.569   3.412   6.425
16857SOL    HW152578   5.481   3.398   6.387
16857SOL    HW252579   5.565   3.359   6.506
16858SOL     OW52580   3.969   3.179   7.452
16858SOL    HW152581   3.894   3.124   7.426
16858SOL    HW252582   3.955   3.185   7.548
16859SOL     OW52583   3.815   3.110   6.243
16859SOL    HW152584   3.830   3.066   6.327
16859SOL    HW252585   3.885   3.072   6.189
16860SOL     OW52586   4.405   3.260   7.213
16860SOL    HW152587   4.327   3.206   7.237
16860SOL    HW252588   4.391   3.341   7.266
16861SOL     OW52589   5.547   2.035   6.818
16861SOL    HW152590   5.553   1.941   6.835
16861SOL    HW252591   5.553   2.037   6.720
16862SOL     OW52592   4.157   2.301   6.115
16862SOL    HW152593   4.198   2.228   6.065
16862SOL    HW252594   4.109   2.255   6.186
16863SOL     OW52595   5.451   3.336   6.673
16863SOL    HW152596   5.364   3.317   6.635
16863SOL    HW252597   5.460   3.266   6.740
16864SOL     OW52598   4.054   2.396   6.877
16864SOL    HW152599   4.125   2.353   6.927
16864SOL    HW252600   4.069   2.367   6.785
16865SOL     OW52601   4.543   3.449   6.270
16865SOL    HW152602   4.539   3.483   6.179
16865SOL    HW252603   4.454   3.413   6.281
16866SOL     OW52604   5.154   2.097   6.686
16866SOL    HW152605   5.188   2.017   6.728
16866SOL    HW252606   5.111   2.144   6.760
16867SOL     OW52607   4.734   1.864   6.737
16867SOL    HW152608   4.681   1.786   6.714
16867SOL    HW252609   4.825   1.825   6.735
16868SOL     OW52610   4.525   3.196   5.896
16868SOL    HW152611   4.496   3.104   5.913
16868SOL    HW252612   4.592   3.211   5.964
16869SOL     OW52613   4.325   3.421   6.855
16869SOL    HW152614   4.326   3.508   6.899
16869SOL    HW252615   4.420   3.410   6.837
16870SOL     OW52616   5.044   1.889   5.773
16870SOL    HW152617   5.042   1.838   5.691
16870SOL    HW252618   4.956   1.865   5.810
16871SOL     OW52619   5.011   2.344   6.276
16871SOL    HW152620   4.948   2.418   6.284
16871SOL    HW252621   5.001   2.298   6.361
16872SOL     OW52622   5.322   2.072   6.453
16872SOL    HW152623   5.247   2.084   6.513
16872SOL    HW252624   5.325   2.156   6.404
16873SOL     OW52625   3.761   2.934   5.889
16873SOL    HW152626   3.852   2.928   5.855
16873SOL    HW252627   3.746   2.841   5.915
16874SOL     OW52628   4.579   3.517   5.940
16874SOL    HW152629   4.519   3.494   5.866
16874SOL    HW252630   4.571   3.613   5.942
16875SOL     OW52631   3.963   2.500   7.584
16875SOL    HW152632   3.870   2.493   7.610
16875SOL    HW252633   3.964   2.477   7.490
16876SOL     OW52634   3.946   2.148   8.449
16876SOL    HW152635   3.969   2.123   8.540
16876SOL    HW252636   3.860   2.103   8.438
16877SOL     OW52637   3.728   2.262   8.070
16877SOL    HW152638   3.648   2.288   8.121
16877SOL    HW252639   3.700   2.178   8.032
16878SOL     OW52640   4.293   3.148   8.643
16878SOL    HW152641   4.204   3.136   8.608
16878SOL    HW252642   4.294   3.243   8.663
16879SOL     OW52643   5.271   3.391   8.167
16879SOL    HW152644   5.236   3.360   8.253
16879SOL    HW252645   5.195   3.381   8.106
16880SOL     OW52646   4.851   2.540   8.158
16880SOL    HW152647   4.884   2.628   8.133
16880SOL    HW252648   4.811   2.558   8.244
16881SOL     OW52649   5.496   2.463   7.687
16881SOL    HW152650   5.478   2.462   7.590
16881SOL    HW252651   5.439   2.391   7.718
16882SOL     OW52652   4.488   3.036   8.486
16882SOL    HW152653   4.416   3.072   8.541
16882SOL    HW252654   4.511   3.113   8.432
16883SOL     OW52655   4.606   2.612   9.251
16883SOL    HW152656   4.579   2.678   9.316
16883SOL    HW252657   4.635   2.666   9.174
16884SOL     OW52658   4.411   2.891   8.101
16884SOL    HW152659   4.472   2.865   8.172
16884SOL    HW252660   4.341   2.939   8.149
16885SOL     OW52661   4.415   3.014   9.255
16885SOL    HW152662   4.457   3.099   9.277
16885SOL    HW252663   4.326   3.041   9.225
16886SOL     OW52664   4.042   3.289   8.517
16886SOL    HW152665   3.972   3.245   8.466
16886SOL    HW252666   4.092   3.340   8.451
16887SOL     OW52667   5.197   3.360   8.829
16887SOL    HW152668   5.250   3.442   8.842
16887SOL    HW252669   5.121   3.374   8.888
16888SOL     OW52670   4.156   2.257   8.976
16888SOL    HW152671   4.232   2.199   8.967
16888SOL    HW252672   4.081   2.199   8.956
16889SOL     OW52673   5.352   2.314   8.192
16889SOL    HW152674   5.286   2.345   8.129
16889SOL    HW252675   5.327   2.362   8.272
16890SOL     OW52676   3.944   3.575   7.920
16890SOL    HW152677   3.969   3.654   7.973
16890SOL    HW252678   4.009   3.579   7.847
16891SOL     OW52679   4.848   3.207   9.115
16891SOL    HW152680   4.889   3.207   9.202
16891SOL    HW252681   4.802   3.121   9.117
16892SOL     OW52682   3.976   3.300   7.983
16892SOL    HW152683   3.967   3.396   7.988
16892SOL    HW252684   3.904   3.269   8.040
16893SOL     OW52685   3.996   2.944   8.351
16893SOL    HW152686   3.991   2.870   8.413
16893SOL    HW252687   3.941   3.011   8.396
16894SOL     OW52688   4.331   3.646   8.869
16894SOL    HW152689   4.253   3.623   8.923
16894SOL    HW252690   4.346   3.739   8.896
16895SOL     OW52691   4.299   2.850   7.565
16895SOL    HW152692   4.349   2.899   7.496
16895SOL    HW252693   4.342   2.884   7.646
16896SOL     OW52694   5.334   1.979   8.949
16896SOL    HW152695   5.332   2.056   8.890
16896SOL    HW252696   5.346   2.021   9.035
16897SOL     OW52697   3.843   2.509   8.015
16897SOL    HW152698   3.810   2.418   8.026
16897SOL    HW252699   3.829   2.548   8.103
16898SOL     OW52700   5.578   3.613   7.779
16898SOL    HW152701   5.646   3.592   7.846
16898SOL    HW252702   5.600   3.705   7.759
16899SOL     OW52703   3.787   3.457   7.565
16899SOL    HW152704   3.769   3.364   7.586
16899SOL    HW252705   3.758   3.502   7.647
16900SOL     OW52706   5.404   2.784   8.107
16900SOL    HW152707   5.479   2.740   8.064
16900SOL    HW252708   5.366   2.835   8.035
16901SOL     OW52709   5.367   2.997   7.880
16901SOL    HW152710   5.460   2.974   7.865
16901SOL    HW252711   5.373   3.055   7.959
16902SOL     OW52712   3.841   2.603   9.031
16902SOL    HW152713   3.927   2.641   9.054
16902SOL    HW252714   3.782   2.678   9.044
16903SOL     OW52715   4.316   3.271   8.209
16903SOL    HW152716   4.276   3.182   8.220
16903SOL    HW252717   4.305   3.282   8.113
16904SOL     OW52718   5.013   3.092   8.866
16904SOL    HW152719   5.042   3.017   8.811
16904SOL    HW252720   5.060   3.074   8.950
16905SOL     OW52721   4.557   1.864   7.936
16905SOL    HW152722   4.589   1.957   7.935
16905SOL    HW252723   4.460   1.878   7.943
16906SOL     OW52724   3.903   2.844   8.711
16906SOL    HW152725   3.994   2.810   8.704
16906SOL    HW252726   3.852   2.778   8.662
16907SOL     OW52727   5.280   2.819   7.624
16907SOL    HW152728   5.200   2.768   7.647
16907SOL    HW252729   5.307   2.852   7.711
16908SOL     OW52730   4.925   3.661   9.078
16908SOL    HW152731   4.918   3.729   9.009
16908SOL    HW252732   4.931   3.580   9.025
16909SOL     OW52733   4.060   2.088   9.229
16909SOL    HW152734   4.107   2.171   9.247
16909SOL    HW252735   3.971   2.109   9.262
16910SOL     OW52736   5.196   3.285   8.403
16910SOL    HW152737   5.135   3.308   8.477
16910SOL    HW252738   5.162   3.197   8.379
16911SOL     OW52739   5.386   3.598   8.050
16911SOL    HW152740   5.355   3.562   7.965
16911SOL    HW252741   5.357   3.526   8.110
16912SOL     OW52742   4.318   2.581   7.707
16912SOL    HW152743   4.314   2.670   7.668
16912SOL    HW252744   4.249   2.584   7.776
16913SOL     OW52745   4.993   2.192   8.349
16913SOL    HW152746   4.903   2.164   8.374
16913SOL    HW252747   5.046   2.154   8.421
16914SOL     OW52748   5.308   3.506   7.747
16914SOL    HW152749   5.399   3.535   7.758
16914SOL    HW252750   5.296   3.514   7.651
16915SOL     OW52751   4.533   2.483   8.907
16915SOL    HW152752   4.510   2.446   8.994
16915SOL    HW252753   4.485   2.423   8.847
16916SOL     OW52754   5.120   2.345   9.117
16916SOL    HW152755   5.126   2.406   9.193
16916SOL    HW252756   5.180   2.272   9.143
16917SOL     OW52757   4.698   2.747   9.031
16917SOL    HW152758   4.736   2.665   8.993
16917SOL    HW252759   4.650   2.783   8.953
16918SOL     OW52760   4.694   2.267   8.679
16918SOL    HW152761   4.602   2.290   8.701
16918SOL    HW252762   4.685   2.217   8.597
16919SOL     OW52763   4.772   2.551   7.857
16919SOL    HW152764   4.779   2.565   7.953
16919SOL    HW252765   4.686   2.503   7.851
16920SOL     OW52766   3.826   2.663   8.248
16920SOL    HW152767   3.899   2.663   8.313
16920SOL    HW252768   3.784   2.748   8.266
16921SOL     OW52769   3.830   3.703   9.015
16921SOL    HW152770   3.840   3.683   9.110
16921SOL    HW252771   3.735   3.695   9.002
16922SOL     OW52772   4.607   2.240   7.656
16922SOL    HW152773   4.648   2.295   7.587
16922SOL    HW252774   4.624   2.152   7.622
16923SOL     OW52775   5.435   2.441   9.291
16923SOL    HW152776   5.398   2.518   9.243
16923SOL    HW252777   5.475   2.393   9.218
16924SOL     OW52778   5.082   3.015   8.006
16924SOL    HW152779   5.161   3.005   7.951
16924SOL    HW252780   5.029   3.076   7.953
16925SOL     OW52781   4.276   2.069   8.343
16925SOL    HW152782   4.284   2.077   8.440
16925SOL    HW252783   4.266   2.160   8.314
16926SOL     OW52784   4.707   3.302   7.940
16926SOL    HW152785   4.667   3.364   7.875
16926SOL    HW252786   4.718   3.359   8.018
16927SOL     OW52787   4.068   3.671   8.306
16927SOL    HW152788   4.115   3.586   8.321
16927SOL    HW252789   4.138   3.736   8.320
16928SOL     OW52790   5.539   2.912   8.339
16928SOL    HW152791   5.489   2.895   8.258
16928SOL    HW252792   5.471   2.898   8.408
16929SOL     OW52793   4.945   3.425   8.946
16929SOL    HW152794   4.920   3.357   9.012
16929SOL    HW252795   4.901   3.390   8.867
16930SOL     OW52796   4.027   2.808   7.702
16930SOL    HW152797   4.105   2.837   7.652
16930SOL    HW252798   4.003   2.726   7.656
16931SOL     OW52799   5.198   2.620   8.163
16931SOL    HW152800   5.196   2.584   8.253
16931SOL    HW252801   5.279   2.675   8.166
16932SOL     OW52802   4.177   3.135   9.177
16932SOL    HW152803   4.137   3.144   9.087
16932SOL    HW252804   4.097   3.140   9.232
16933SOL     OW52805   4.842   3.602   7.692
16933SOL    HW152806   4.760   3.563   7.727
16933SOL    HW252807   4.850   3.563   7.603
16934SOL     OW52808   3.894   2.153   8.948
16934SOL    HW152809   3.821   2.210   8.976
16934SOL    HW252810   3.875   2.071   8.996
16935SOL     OW52811   4.177   3.598   7.766
16935SOL    HW152812   4.226   3.646   7.835
16935SOL    HW252813   4.247   3.565   7.708
16936SOL     OW52814   5.127   1.958   7.887
16936SOL    HW152815   5.127   1.917   7.799
16936SOL    HW252816   5.220   1.985   7.898
16937SOL     OW52817   3.971   3.653   8.676
16937SOL    HW152818   4.027   3.585   8.714
16937SOL    HW252819   3.959   3.622   8.585
16938SOL     OW52820   4.680   3.565   8.333
16938SOL    HW152821   4.755   3.508   8.349
16938SOL    HW252822   4.632   3.517   8.262
16939SOL     OW52823   4.128   2.548   7.911
16939SOL    HW152824   4.150   2.455   7.932
16939SOL    HW252825   4.034   2.551   7.936
16940SOL     OW52826   5.269   2.125   9.182
16940SOL    HW152827   5.267   2.122   9.280
16940SOL    HW252828   5.203   2.058   9.160
16941SOL     OW52829   4.351   1.994   7.545
16941SOL    HW152830   4.424   1.935   7.564
16941SOL    HW252831   4.302   1.942   7.477
16942SOL     OW52832   4.495   2.116   9.184
16942SOL    HW152833   4.575   2.061   9.195
16942SOL    HW252834   4.445   2.097   9.265
16943SOL     OW52835   4.609   3.404   8.646
16943SOL    HW152836   4.604   3.376   8.553
16943SOL    HW252837   4.677   3.345   8.683
16944SOL     OW52838   5.065   2.449   8.869
16944SOL    HW152839   5.100   2.421   8.956
16944SOL    HW252840   5.108   2.536   8.856
16945SOL     OW52841   4.548   3.279   8.371
16945SOL    HW152842   4.633   3.264   8.326
16945SOL    HW252843   4.483   3.278   8.298
16946SOL     OW52844   4.665   2.394   8.358
16946SOL    HW152845   4.640   2.382   8.264
16946SOL    HW252846   4.693   2.304   8.380
16947SOL     OW52847   4.285   1.910   7.951
16947SOL    HW152848   4.210   1.919   8.011
16947SOL    HW252849   4.272   1.987   7.892
16948SOL     OW52850   5.177   3.054   7.493
16948SOL    HW152851   5.202   2.968   7.534
16948SOL    HW252852   5.081   3.057   7.508
16949SOL     OW52853   4.006   1.906   7.637
16949SOL    HW152854   4.064   1.981   7.616
16949SOL    HW252855   4.069   1.844   7.678
16950SOL     OW52856   4.655   2.116   7.935
16950SOL    HW152857   4.636   2.165   7.853
16950SOL    HW252858   4.751   2.129   7.944
16951SOL     OW52859   4.815   2.536   8.918
16951SOL    HW152860   4.754   2.460   8.919
16951SOL    HW252861   4.903   2.496   8.909
16952SOL     OW52862   4.971   3.436   8.212
16952SOL    HW152863   4.964   3.509   8.148
16952SOL    HW252864   5.030   3.472   8.278
16953SOL     OW52865   4.196   3.029   8.192
16953SOL    HW152866   4.122   2.995   8.246
16953SOL    HW252867   4.162   3.008   8.101
16954SOL     OW52868   4.984   3.674   8.047
16954SOL    HW152869   5.039   3.740   8.000
16954SOL    HW252870   4.938   3.729   8.113
16955SOL     OW52871   4.779   2.389   7.472
16955SOL    HW152872   4.732   2.472   7.455
16955SOL    HW252873   4.844   2.412   7.540
16956SOL     OW52874   3.789   2.419   8.846
16956SOL    HW152875   3.882   2.397   8.828
16956SOL    HW252876   3.798   2.497   8.905
16957SOL     OW52877   4.295   2.088   8.614
16957SOL    HW152878   4.336   2.013   8.659
16957SOL    HW252879   4.203   2.082   8.645
16958SOL     OW52880   4.603   2.323   8.109
16958SOL    HW152881   4.558   2.371   8.038
16958SOL    HW252882   4.620   2.237   8.068
16959SOL     OW52883   4.727   1.938   8.223
16959SOL    HW152884   4.697   1.914   8.135
16959SOL    HW252885   4.715   1.855   8.273
16960SOL     OW52886   5.136   3.033   8.334
16960SOL    HW152887   5.095   2.949   8.362
16960SOL    HW252888   5.126   3.029   8.237
16961SOL     OW52889   5.224   2.425   8.420
16961SOL    HW152890   5.162   2.353   8.440
16961SOL    HW252891   5.276   2.434   8.503
16962SOL     OW52892   5.552   2.689   7.841
16962SOL    HW152893   5.607   2.637   7.902
16962SOL    HW252894   5.540   2.624   7.769
16963SOL     OW52895   4.216   3.286   7.571
16963SOL    HW152896   4.136   3.273   7.623
16963SOL    HW252897   4.197   3.236   7.491
16964SOL     OW52898   5.400   3.158   8.095
16964SOL    HW152899   5.496   3.158   8.109
16964SOL    HW252900   5.370   3.241   8.135
16965SOL     OW52901   5.120   2.455   7.511
16965SOL    HW152902   5.066   2.427   7.588
16965SOL    HW252903   5.202   2.406   7.526
16966SOL     OW52904   4.242   2.097   7.767
16966SOL    HW152905   4.288   2.067   7.686
16966SOL    HW252906   4.213   2.186   7.737
16967SOL     OW52907   5.457   3.096   9.029
16967SOL    HW152908   5.541   3.049   9.024
16967SOL    HW252909   5.488   3.187   9.040
16968SOL     OW52910   4.791   3.239   8.794
16968SOL    HW152911   4.714   3.198   8.836
16968SOL    HW252912   4.864   3.182   8.827
16969SOL     OW52913   5.305   3.499   9.146
16969SOL    HW152914   5.294   3.544   9.061
16969SOL    HW252915   5.383   3.444   9.127
16970SOL     OW52916   4.855   3.100   8.556
16970SOL    HW152917   4.776   3.107   8.610
16970SOL    HW252918   4.825   3.139   8.471
16971SOL     OW52919   5.327   2.960   8.532
16971SOL    HW152920   5.334   3.025   8.604
16971SOL    HW252921   5.278   3.011   8.465
16972SOL     OW52922   4.637   1.963   8.848
16972SOL    HW152923   4.669   1.940   8.759
16972SOL    HW252924   4.715   2.007   8.886
16973SOL     OW52925   4.725   2.973   9.188
16973SOL    HW152926   4.635   3.003   9.208
16973SOL    HW252927   4.712   2.897   9.128
16974SOL     OW52928   4.441   2.927   7.787
16974SOL    HW152929   4.427   2.901   7.880
16974SOL    HW252930   4.519   2.871   7.762
16975SOL     OW52931   4.145   2.676   8.714
16975SOL    HW152932   4.218   2.674   8.778
16975SOL    HW252933   4.103   2.589   8.727
16976SOL     OW52934   5.004   2.248   8.706
16976SOL    HW152935   5.024   2.324   8.765
16976SOL    HW252936   4.912   2.265   8.680
16977SOL     OW52937   3.800   3.432   8.790
16977SOL    HW152938   3.794   3.519   8.750
16977SOL    HW252939   3.896   3.414   8.786
16978SOL     OW52940   4.098   2.968   7.952
16978SOL    HW152941   4.109   3.031   7.880
16978SOL    HW252942   4.086   2.885   7.904
16979SOL     OW52943   4.261   2.405   8.293
16979SOL    HW152944   4.287   2.467   8.223
16979SOL    HW252945   4.324   2.428   8.363
16980SOL     OW52946   4.944   3.197   7.836
16980SOL    HW152947   4.986   3.275   7.877
16980SOL    HW252948   4.853   3.208   7.867
16981SOL     OW52949   5.028   3.331   8.610
16981SOL    HW152950   5.082   3.318   8.690
16981SOL    HW252951   4.966   3.257   8.614
16982SOL     OW52952   5.296   2.467   7.914
16982SOL    HW152953   5.244   2.518   7.978
16982SOL    HW252954   5.336   2.536   7.859
16983SOL     OW52955   4.061   3.375   8.762
16983SOL    HW152956   4.049   3.337   8.672
16983SOL    HW252957   4.157   3.395   8.759
16984SOL     OW52958   4.168   2.594   9.077
16984SOL    HW152959   4.223   2.636   9.009
16984SOL    HW252960   4.193   2.501   9.067
16985SOL     OW52961   5.350   2.637   9.136
16985SOL    HW152962   5.259   2.671   9.131
16985SOL    HW252963   5.392   2.682   9.060
16986SOL     OW52964   4.721   1.966   9.213
16986SOL    HW152965   4.782   2.038   9.192
16986SOL    HW252966   4.764   1.891   9.168
16987SOL     OW52967   4.227   1.871   9.208
16987SOL    HW152968   4.182   1.816   9.141
16987SOL    HW252969   4.166   1.947   9.212
16988SOL     OW52970   4.295   2.755   8.494
16988SOL    HW152971   4.333   2.843   8.502
16988SOL    HW252972   4.249   2.742   8.578
16989SOL     OW52973   5.082   2.721   8.459
16989SOL    HW152974   4.994   2.687   8.435
16989SOL    HW252975   5.131   2.641   8.479
16990SOL     OW52976   4.948   2.391   7.713
16990SOL    HW152977   4.952   2.318   7.777
16990SOL    HW252978   4.890   2.454   7.759
16991SOL     OW52979   4.031   2.066   8.706
16991SOL    HW152980   3.976   2.093   8.781
16991SOL    HW252981   4.008   1.971   8.697
16992SOL     OW52982   3.758   3.162   8.732
16992SOL    HW152983   3.782   3.105   8.808
16992SOL    HW252984   3.768   3.252   8.767
16993SOL     OW52985   4.438   2.508   8.495
16993SOL    HW152986   4.519   2.490   8.444
16993SOL    HW252987   4.415   2.601   8.476
16994SOL     OW52988   5.489   2.811   9.297
16994SOL    HW152989   5.443   2.743   9.244
16994SOL    HW252990   5.422   2.827   9.366
16995SOL     OW52991   4.028   1.930   8.056
16995SOL    HW152992   3.999   2.021   8.078
16995SOL    HW252993   4.031   1.888   8.143
16996SOL     OW52994   5.312   2.232   7.794
16996SOL    HW152995   5.350   2.164   7.852
16996SOL    HW252996   5.304   2.310   7.852
16997SOL     OW52997   4.784   2.625   8.421
16997SOL    HW152998   4.765   2.639   8.516
16997SOL    HW252999   4.750   2.534   8.409
16998SOL     OW53000   4.709   3.434   9.160
16998SOL    HW153001   4.690   3.485   9.078
16998SOL    HW253002   4.724   3.345   9.124
16999SOL     OW53003   5.563   3.361   9.059
16999SOL    HW153004   5.585   3.383   8.966
16999SOL    HW253005   5.647   3.384   9.104
17000SOL     OW53006   4.073   2.760   9.254
17000SOL    HW153007   4.155   2.782   9.299
17000SOL    HW253008   4.100   2.687   9.194
17001SOL     OW53009   5.222   2.106   7.573
17001SOL    HW153010   5.158   2.041   7.605
17001SOL    HW253011   5.259   2.145   7.655
17002SOL     OW53012   5.025   2.706   7.473
17002SOL    HW153013   5.067   2.619   7.484
17002SOL    HW253014   5.043   2.724   7.379
17003SOL     OW53015   4.802   3.226   8.299
17003SOL    HW153016   4.811   3.145   8.245
17003SOL    HW253017   4.868   3.286   8.261
17004SOL     OW53018   4.011   2.679   8.454
17004SOL    HW153019   4.104   2.700   8.437
17004SOL    HW253020   4.016   2.583   8.470
17005SOL     OW53021   4.045   2.406   8.445
17005SOL    HW153022   4.014   2.314   8.429
17005SOL    HW253023   4.116   2.414   8.378
17006SOL     OW53024   4.877   2.237   9.134
17006SOL    HW153025   4.832   2.289   9.205
17006SOL    HW253026   4.966   2.277   9.135
17007SOL     OW53027   4.889   2.057   8.940
17007SOL    HW153028   4.889   2.124   9.011
17007SOL    HW253029   4.935   2.105   8.869
17008SOL     OW53030   3.732   3.185   7.649
17008SOL    HW153031   3.641   3.200   7.616
17008SOL    HW253032   3.728   3.092   7.679
17009SOL     OW53033   3.821   3.643   8.393
17009SOL    HW153034   3.792   3.574   8.330
17009SOL    HW253035   3.912   3.661   8.361
17010SOL     OW53036   4.209   3.450   8.379
17010SOL    HW153037   4.275   3.520   8.399
17010SOL    HW253038   4.260   3.390   8.321
17011SOL     OW53039   4.702   2.634   8.684
17011SOL    HW153040   4.753   2.599   8.759
17011SOL    HW253041   4.612   2.605   8.707
17012SOL     OW53042   3.750   2.378   8.561
17012SOL    HW153043   3.828   2.373   8.505
17012SOL    HW253044   3.788   2.401   8.646
17013SOL     OW53045   3.942   2.374   9.161
17013SOL    HW153046   3.997   2.333   9.093
17013SOL    HW253047   3.896   2.444   9.112
17014SOL     OW53048   5.106   2.763   9.094
17014SOL    HW153049   5.123   2.859   9.097
17014SOL    HW253050   5.108   2.746   8.998
17015SOL     OW53051   4.529   2.443   7.822
17015SOL    HW153052   4.539   2.371   7.758
17015SOL    HW253053   4.451   2.490   7.788
17016SOL     OW53054   5.367   2.481   8.657
17016SOL    HW153055   5.343   2.415   8.724
17016SOL    HW253056   5.452   2.446   8.623
17017SOL     OW53057   3.972   3.399   9.173
17017SOL    HW153058   3.953   3.466   9.240
17017SOL    HW253059   3.977   3.317   9.226
17018SOL     OW53060   4.414   2.341   8.712
17018SOL    HW153061   4.369   2.261   8.679
17018SOL    HW253062   4.408   2.402   8.636
17019SOL     OW53063   4.648   3.555   8.931
17019SOL    HW153064   4.630   3.514   8.845
17019SOL    HW253065   4.641   3.650   8.912
17020SOL     OW53066   4.167   2.332   7.652
17020SOL    HW153067   4.233   2.403   7.652
17020SOL    HW253068   4.084   2.384   7.647
17021SOL     OW53069   3.835   2.993   8.924
17021SOL    HW153070   3.844   2.938   9.005
17021SOL    HW253071   3.856   2.930   8.852
17022SOL     OW53072   5.047   2.898   8.679
17022SOL    HW153073   5.065   2.846   8.599
17022SOL    HW253074   4.983   2.964   8.645
17023SOL     OW53075   5.036   2.721   7.746
17023SOL    HW153076   4.955   2.689   7.787
17023SOL    HW253077   5.012   2.727   7.651
17024SOL     OW53078   5.475   3.614   8.574
17024SOL    HW153079   5.555   3.626   8.519
17024SOL    HW253080   5.463   3.517   8.565
17025SOL     OW53081   4.967   3.590   8.556
17025SOL    HW153082   5.053   3.614   8.517
17025SOL    HW253083   4.979   3.495   8.573
17026SOL     OW53084   3.827   3.116   8.478
17026SOL    HW153085   3.798   3.135   8.571
17026SOL    HW253086   3.749   3.070   8.443
17027SOL     OW53087   4.414   3.510   9.185
17027SOL    HW153088   4.358   3.588   9.172
17027SOL    HW253089   4.485   3.524   9.121
17028SOL     OW53090   5.403   2.007   7.937
17028SOL    HW153091   5.480   1.994   7.880
17028SOL    HW253092   5.404   1.928   7.994
17029SOL     OW53093   5.086   3.441   7.923
17029SOL    HW153094   5.133   3.464   7.841
17029SOL    HW253095   5.043   3.524   7.947
17030SOL     OW53096   3.873   3.660   9.276
17030SOL    HW153097   3.828   3.590   9.327
17030SOL    HW253098   3.922   3.705   9.347
17031SOL     OW53099   4.972   2.780   8.104
17031SOL    HW153100   5.054   2.730   8.125
17031SOL    HW253101   5.010   2.860   8.062
17032SOL     OW53102   4.531   3.123   8.879
17032SOL    HW153103   4.500   3.171   8.959
17032SOL    HW253104   4.458   3.141   8.818
17033SOL     OW53105   4.397   3.477   7.606
17033SOL    HW153106   4.407   3.494   7.510
17033SOL    HW253107   4.340   3.397   7.603
17034SOL     OW53108   5.343   3.582   8.847
17034SOL    HW153109   5.392   3.593   8.764
17034SOL    HW253110   5.329   3.674   8.876
17035SOL     OW53111   5.556   2.027   8.419
17035SOL    HW153112   5.580   1.940   8.383
17035SOL    HW253113   5.470   2.047   8.376
17036SOL     OW53114   3.973   2.175   8.148
17036SOL    HW153115   3.889   2.222   8.132
17036SOL    HW253116   3.983   2.182   8.244
17037SOL     OW53117   4.920   3.479   7.465
17037SOL    HW153118   4.922   3.385   7.486
17037SOL    HW253119   4.853   3.484   7.395
17038SOL     OW53120   4.551   2.861   8.836
17038SOL    HW153121   4.585   2.873   8.746
17038SOL    HW253122   4.547   2.953   8.869
17039SOL     OW53123   4.639   2.771   7.724
17039SOL    HW153124   4.716   2.809   7.678
17039SOL    HW253125   4.674   2.692   7.765
17040SOL     OW53126   5.243   3.466   7.464
17040SOL    HW153127   5.151   3.497   7.470
17040SOL    HW253128   5.266   3.488   7.370
17041SOL     OW53129   4.069   3.140   8.935
17041SOL    HW153130   4.056   3.213   8.872
17041SOL    HW253131   3.987   3.089   8.927
17042SOL     OW53132   5.329   3.168   8.711
17042SOL    HW153133   5.373   3.137   8.791
17042SOL    HW253134   5.273   3.240   8.747
17043SOL     OW53135   4.775   2.974   8.179
17043SOL    HW153136   4.701   2.923   8.215
17043SOL    HW253137   4.831   2.905   8.140
17044SOL     OW53138   4.752   2.095   8.438
17044SOL    HW153139   4.737   2.050   8.352
17044SOL    HW253140   4.752   2.019   8.499
17045SOL     OW53141   4.341   3.351   7.942
17045SOL    HW153142   4.396   3.313   7.871
17045SOL    HW253143   4.265   3.384   7.894
17046SOL     OW53144   5.446   2.229   8.827
17046SOL    HW153145   5.511   2.302   8.820
17046SOL    HW253146   5.490   2.160   8.773
17047SOL     OW53147   3.981   3.241   7.723
17047SOL    HW153148   3.885   3.227   7.713
17047SOL    HW253149   3.987   3.264   7.818
17048SOL     OW53150   3.853   2.872   9.157
17048SOL    HW153151   3.780   2.856   9.220
17048SOL    HW253152   3.931   2.838   9.205
17049SOL     OW53153   4.390   2.047   8.939
17049SOL    HW153154   4.478   2.020   8.905
17049SOL    HW253155   4.414   2.080   9.028
17050SOL     OW53156   3.820   2.206   7.482
17050SOL    HW153157   3.726   2.205   7.460
17050SOL    HW253158   3.852   2.278   7.425
17051SOL     OW53159   5.176   2.720   8.835
17051SOL    HW153160   5.129   2.781   8.774
17051SOL    HW253161   5.268   2.746   8.819
17052SOL     OW53162   3.770   2.024   7.743
17052SOL    HW153163   3.769   2.112   7.703
17052SOL    HW253164   3.853   1.988   7.708
17053SOL     OW53165   4.929   3.209   7.564
17053SOL    HW153166   4.842   3.167   7.562
17053SOL    HW253167   4.947   3.211   7.660
17054SOL     OW53168   4.350   2.673   8.880
17054SOL    HW153169   4.407   2.753   8.882
17054SOL    HW253170   4.419   2.604   8.888
17055SOL     OW53171   5.223   3.628   8.418
17055SOL    HW153172   5.261   3.673   8.342
17055SOL    HW253173   5.301   3.609   8.471
17056SOL     OW53174   4.450   2.390   9.137
17056SOL    HW153175   4.483   2.449   9.206
17056SOL    HW253176   4.467   2.300   9.171
17057SOL     OW53177   5.188   3.038   9.072
17057SOL    HW153178   5.186   3.045   9.169
17057SOL    HW253179   5.282   3.056   9.051
17058SOL     OW53180   4.096   3.593   9.014
17058SOL    HW153181   4.010   3.636   9.000
17058SOL    HW253182   4.068   3.508   9.053
17059SOL     OW53183   5.425   2.744   8.691
17059SOL    HW153184   5.401   2.655   8.659
17059SOL    HW253185   5.384   2.804   8.626
17060SOL     OW53186   4.924   2.186   7.920
17060SOL    HW153187   4.992   2.118   7.912
17060SOL    HW253188   4.961   2.243   7.991
17061SOL     OW53189   4.321   2.606   8.115
17061SOL    HW153190   4.354   2.696   8.101
17061SOL    HW253191   4.253   2.597   8.047
17062SOL     OW53192   5.501   2.228   9.087
17062SOL    HW153193   5.473   2.240   8.995
17062SOL    HW253194   5.421   2.191   9.128
17063SOL     OW53195   5.465   2.798   8.948
17063SOL    HW153196   5.472   2.894   8.941
17063SOL    HW253197   5.465   2.771   8.854
17064SOL     OW53198   4.585   3.224   7.479
17064SOL    HW153199   4.563   3.244   7.571
17064SOL    HW253200   4.614   3.309   7.442
17065SOL     OW53201   4.363   3.673   8.375
17065SOL    HW153202   4.355   3.768   8.357
17065SOL    HW253203   4.458   3.659   8.381
17066SOL     OW53204   4.594   2.802   8.299
17066SOL    HW153205   4.651   2.734   8.339
17066SOL    HW253206   4.581   2.865   8.372
17067SOL     OW53207   4.834   2.873   7.562
17067SOL    HW153208   4.792   2.918   7.487
17067SOL    HW253209   4.890   2.807   7.516
17068SOL     OW53210   5.590   3.420   8.293
17068SOL    HW153211   5.495   3.407   8.286
17068SOL    HW253212   5.616   3.347   8.349
17069SOL     OW53213   3.961   3.175   9.322
17069SOL    HW153214   3.886   3.117   9.305
17069SOL    HW253215   3.954   3.189   9.418
17070SOL     OW53216   3.813   3.115   8.107
17070SOL    HW153217   3.809   3.059   8.186
17070SOL    HW253218   3.890   3.078   8.061
17071SOL     OW53219   4.398   3.265   9.071
17071SOL    HW153220   4.319   3.214   9.098
17071SOL    HW253221   4.390   3.345   9.125
17072SOL     OW53222   5.556   2.029   8.680
17072SOL    HW153223   5.562   1.933   8.682
17072SOL    HW253224   5.553   2.046   8.583
17073SOL     OW53225   4.168   2.284   7.980
17073SOL    HW153226   4.201   2.210   7.927
17073SOL    HW253227   4.117   2.243   8.051
17074SOL     OW53228   5.431   3.357   8.537
17074SOL    HW153229   5.349   3.330   8.492
17074SOL    HW253230   5.434   3.289   8.606
17075SOL     OW53231   4.048   2.395   8.732
17075SOL    HW153232   4.118   2.353   8.783
17075SOL    HW253233   4.068   2.367   8.640
17076SOL     OW53234   4.538   3.463   8.127
17076SOL    HW153235   4.524   3.498   8.038
17076SOL    HW253236   4.459   3.407   8.137
17077SOL     OW53237   5.158   2.104   8.545
17077SOL    HW153238   5.188   2.024   8.590
17077SOL    HW253239   5.108   2.151   8.616
17078SOL     OW53240   4.740   1.861   8.605
17078SOL    HW153241   4.686   1.786   8.577
17078SOL    HW253242   4.830   1.823   8.601
17079SOL     OW53243   4.515   3.198   7.762
17079SOL    HW153244   4.477   3.108   7.761
17079SOL    HW253245   4.581   3.191   7.833
17080SOL     OW53246   4.322   3.419   8.712
17080SOL    HW153247   4.327   3.501   8.764
17080SOL    HW253248   4.416   3.410   8.688
17081SOL     OW53249   5.036   1.890   7.621
17081SOL    HW153250   5.044   1.821   7.554
17081SOL    HW253251   4.948   1.869   7.660
17082SOL     OW53252   5.024   2.339   8.121
17082SOL    HW153253   4.962   2.415   8.125
17082SOL    HW253254   5.006   2.294   8.206
17083SOL     OW53255   5.318   2.071   8.311
17083SOL    HW153256   5.244   2.086   8.372
17083SOL    HW253257   5.321   2.153   8.259
17084SOL     OW53258   3.766   2.930   7.754
17084SOL    HW153259   3.860   2.921   7.732
17084SOL    HW253260   3.747   2.837   7.781
17085SOL     OW53261   4.601   3.506   7.784
17085SOL    HW153262   4.526   3.494   7.723
17085SOL    HW253263   4.579   3.588   7.833
17086SOL     OW53264   3.959   2.494   9.437
17086SOL    HW153265   3.868   2.484   9.467
17086SOL    HW253266   3.957   2.471   9.343
17087SOL     OW53267   3.944   2.138  10.279
17087SOL    HW153268   3.964   2.124  10.373
17087SOL    HW253269   3.857   2.095  10.271
17088SOL     OW53270   3.723   2.259   9.927
17088SOL    HW153271   3.644   2.280   9.981
17088SOL    HW253272   3.695   2.177   9.884
17089SOL     OW53273   4.291   3.162  10.453
17089SOL    HW153274   4.196   3.145  10.445
17089SOL    HW253275   4.294   3.247  10.498
17090SOL     OW53276   5.280   3.382  10.023
17090SOL    HW153277   5.246   3.352  10.110
17090SOL    HW253278   5.203   3.375   9.965
17091SOL     OW53279   4.857   2.542  10.012
17091SOL    HW153280   4.888   2.631   9.989
17091SOL    HW253281   4.803   2.560  10.090
17092SOL     OW53282   5.506   2.461   9.546
17092SOL    HW153283   5.477   2.461   9.453
17092SOL    HW253284   5.455   2.386   9.582
17093SOL     OW53285   4.485   3.015  10.340
17093SOL    HW153286   4.411   3.062  10.385
17093SOL    HW253287   4.518   3.089  10.286
17094SOL     OW53288   4.603   2.608   0.019
17094SOL    HW153289   4.588   2.679   0.083
17094SOL    HW253290   4.627   2.660  11.039
17095SOL     OW53291   4.420   2.908   9.967
17095SOL    HW153292   4.475   2.876  10.041
17095SOL    HW253293   4.341   2.942  10.012
17096SOL     OW53294   4.038   3.297  10.385
17096SOL    HW153295   3.971   3.251  10.332
17096SOL    HW253296   4.093   3.341  10.317
17097SOL     OW53297   5.193   3.361  10.663
17097SOL    HW153298   5.252   3.439  10.671
17097SOL    HW253299   5.126   3.380  10.731
17098SOL     OW53300   4.186   2.253  10.786
17098SOL    HW153301   4.252   2.183  10.794
17098SOL    HW253302   4.103   2.210  10.810
17099SOL     OW53303   5.352   2.306  10.047
17099SOL    HW153304   5.288   2.345   9.985
17099SOL    HW253305   5.347   2.365  10.122
17100SOL     OW53306   3.945   3.578   9.789
17100SOL    HW153307   3.980   3.655   9.838
17100SOL    HW253308   4.005   3.574   9.713
17101SOL     OW53309   3.972   3.293   9.848
17101SOL    HW153310   3.967   3.389   9.853
17101SOL    HW253311   3.901   3.264   9.906
17102SOL     OW53312   3.987   2.940  10.187
17102SOL    HW153313   3.995   2.867  10.250
17102SOL    HW253314   3.938   3.007  10.239
17103SOL     OW53315   4.323   3.660  10.729
17103SOL    HW153316   4.249   3.640  10.790
17103SOL    HW253317   4.342   3.753  10.750
17104SOL     OW53318   4.298   2.847   9.425
17104SOL    HW153319   4.348   2.899   9.359
17104SOL    HW253320   4.338   2.881   9.508
17105SOL     OW53321   5.297   1.983  10.790
17105SOL    HW153322   5.331   2.058  10.739
17105SOL    HW253323   5.340   1.994  10.876
17106SOL     OW53324   3.842   2.507   9.878
17106SOL    HW153325   3.811   2.415   9.892
17106SOL    HW253326   3.829   2.548   9.966
17107SOL     OW53327   5.580   3.604   9.654
17107SOL    HW153328   5.649   3.581   9.720
17107SOL    HW253329   5.598   3.698   9.639
17108SOL     OW53330   3.785   3.457   9.430
17108SOL    HW153331   3.770   3.364   9.449
17108SOL    HW253332   3.754   3.500   9.512
17109SOL     OW53333   5.408   2.775   9.918
17109SOL    HW153334   5.492   2.743   9.884
17109SOL    HW253335   5.378   2.833   9.847
17110SOL     OW53336   5.362   2.994   9.746
17110SOL    HW153337   5.455   2.982   9.722
17110SOL    HW253338   5.371   3.052   9.825
17111SOL     OW53339   3.839   2.608  10.898
17111SOL    HW153340   3.924   2.634  10.936
17111SOL    HW253341   3.793   2.694  10.895
17112SOL     OW53342   4.317   3.268  10.073
17112SOL    HW153343   4.274   3.180  10.079
17112SOL    HW253344   4.316   3.279   9.976
17113SOL     OW53345   5.024   3.119  10.746
17113SOL    HW153346   5.054   3.061  10.674
17113SOL    HW253347   5.072   3.083  10.822
17114SOL     OW53348   4.560   1.861   9.814
17114SOL    HW153349   4.590   1.954   9.814
17114SOL    HW253350   4.463   1.872   9.820
17115SOL     OW53351   3.927   2.833  10.610
17115SOL    HW153352   4.013   2.801  10.578
17115SOL    HW253353   3.865   2.775  10.562
17116SOL     OW53354   5.277   2.819   9.490
17116SOL    HW153355   5.196   2.773   9.518
17116SOL    HW253356   5.304   2.863   9.572
17117SOL     OW53357   4.945   3.666  10.911
17117SOL    HW153358   4.929   3.727  10.837
17117SOL    HW253359   4.947   3.580  10.865
17118SOL     OW53360   4.083   2.104  11.097
17118SOL    HW153361   4.136   2.167   0.047
17118SOL    HW253362   3.995   2.147  11.099
17119SOL     OW53363   5.199   3.277  10.264
17119SOL    HW153364   5.132   3.301  10.332
17119SOL    HW253365   5.169   3.188  10.239
17120SOL     OW53366   5.389   3.596   9.909
17120SOL    HW153367   5.356   3.556   9.828
17120SOL    HW253368   5.366   3.526   9.973
17121SOL     OW53369   4.319   2.578   9.579
17121SOL    HW153370   4.318   2.664   9.535
17121SOL    HW253371   4.248   2.587   9.645
17122SOL     OW53372   4.994   2.226  10.257
17122SOL    HW153373   4.906   2.184  10.256
17122SOL    HW253374   5.047   2.163  10.308
17123SOL     OW53375   5.309   3.493   9.609
17123SOL    HW153376   5.391   3.544   9.619
17123SOL    HW253377   5.343   3.408   9.577
17124SOL     OW53378   4.540   2.476  10.782
17124SOL    HW153379   4.511   2.447  10.870
17124SOL    HW253380   4.492   2.416  10.722
17125SOL     OW53381   4.684   2.728  10.892
17125SOL    HW153382   4.736   2.664  10.842
17125SOL    HW253383   4.638   2.777  10.822
17126SOL     OW53384   4.682   2.226  10.570
17126SOL    HW153385   4.598   2.275  10.581
17126SOL    HW253386   4.690   2.220  10.474
17127SOL     OW53387   4.762   2.544   9.717
17127SOL    HW153388   4.773   2.567   9.811
17127SOL    HW253389   4.677   2.496   9.719
17128SOL     OW53390   3.827   2.671  10.110
17128SOL    HW153391   3.899   2.673  10.174
17128SOL    HW253392   3.787   2.759  10.121
17129SOL     OW53393   3.833   3.716  10.872
17129SOL    HW153394   3.834   3.656  10.948
17129SOL    HW253395   3.747   3.698  10.833
17130SOL     OW53396   4.603   2.225   9.526
17130SOL    HW153397   4.638   2.281   9.456
17130SOL    HW253398   4.621   2.138   9.490
17131SOL     OW53399   5.092   3.015   9.876
17131SOL    HW153400   5.165   3.003   9.814
17131SOL    HW253401   5.036   3.078   9.827
17132SOL     OW53402   4.273   2.045  10.195
17132SOL    HW153403   4.277   2.069  10.289
17132SOL    HW253404   4.263   2.132  10.152
17133SOL     OW53405   4.717   3.310   9.784
17133SOL    HW153406   4.667   3.370   9.725
17133SOL    HW253407   4.722   3.361   9.866
17134SOL     OW53408   4.068   3.670  10.164
17134SOL    HW153409   4.110   3.583  10.183
17134SOL    HW253410   4.140   3.732  10.186
17135SOL     OW53411   5.538   2.892  10.174
17135SOL    HW153412   5.477   2.887  10.099
17135SOL    HW253413   5.479   2.905  10.249
17136SOL     OW53414   4.958   3.421  10.797
17136SOL    HW153415   4.943   3.350  10.860
17136SOL    HW253416   4.893   3.397  10.729
17137SOL     OW53417   4.029   2.819   9.552
17137SOL    HW153418   4.111   2.840   9.505
17137SOL    HW253419   4.000   2.739   9.505
17138SOL     OW53420   5.200   2.622  10.036
17138SOL    HW153421   5.208   2.594  10.128
17138SOL    HW253422   5.284   2.668  10.019
17139SOL     OW53423   4.199   3.137  11.039
17139SOL    HW153424   4.167   3.147  10.946
17139SOL    HW253425   4.147   3.062  11.069
17140SOL     OW53426   4.834   3.605   9.547
17140SOL    HW153427   4.761   3.576   9.605
17140SOL    HW253428   4.811   3.564   9.463
17141SOL     OW53429   3.904   2.150  10.788
17141SOL    HW153430   3.836   2.214  10.813
17141SOL    HW253431   3.883   2.074  10.844
17142SOL     OW53432   5.330   3.250   9.392
17142SOL    HW153433   5.391   3.256   9.318
17142SOL    HW253434   5.277   3.171   9.370
17143SOL     OW53435   4.179   3.597   9.637
17143SOL    HW153436   4.229   3.649   9.703
17143SOL    HW253437   4.248   3.567   9.576
17144SOL     OW53438   5.122   1.959   9.739
17144SOL    HW153439   5.117   1.914   9.652
17144SOL    HW253440   5.217   1.976   9.749
17145SOL     OW53441   3.967   3.654  10.538
17145SOL    HW153442   4.033   3.593  10.572
17145SOL    HW253443   3.949   3.621  10.449
17146SOL     OW53444   4.675   3.572  10.203
17146SOL    HW153445   4.753   3.518  10.220
17146SOL    HW253446   4.632   3.522  10.131
17147SOL     OW53447   4.121   2.554   9.780
17147SOL    HW153448   4.143   2.460   9.793
17147SOL    HW253449   4.026   2.553   9.799
17148SOL     OW53450   4.354   1.999   9.402
17148SOL    HW153451   4.421   1.939   9.438
17148SOL    HW253452   4.306   1.941   9.339
17149SOL     OW53453   4.506   2.123  11.028
17149SOL    HW153454   4.566   2.081  11.090
17149SOL    HW253455   4.429   2.139  11.085
17150SOL     OW53456   4.622   3.408  10.505
17150SOL    HW153457   4.609   3.371  10.416
17150SOL    HW253458   4.686   3.347  10.545
17151SOL     OW53459   5.074   2.449  10.738
17151SOL    HW153460   5.125   2.440  10.819
17151SOL    HW253461   5.105   2.538  10.709
17152SOL     OW53462   4.543   3.268  10.256
17152SOL    HW153463   4.627   3.257  10.207
17152SOL    HW253464   4.476   3.262  10.185
17153SOL     OW53465   4.667   2.385  10.220
17153SOL    HW153466   4.638   2.379  10.126
17153SOL    HW253467   4.690   2.293  10.236
17154SOL     OW53468   4.286   1.911   9.815
17154SOL    HW153469   4.208   1.916   9.874
17154SOL    HW253470   4.271   1.987   9.755
17155SOL     OW53471   5.173   3.037   9.335
17155SOL    HW153472   5.199   2.957   9.386
17155SOL    HW253473   5.083   3.053   9.365
17156SOL     OW53474   4.007   1.904   9.498
17156SOL    HW153475   4.065   1.978   9.478
17156SOL    HW253476   4.068   1.841   9.541
17157SOL     OW53477   4.659   2.116   9.806
17157SOL    HW153478   4.635   2.160   9.722
17157SOL    HW253479   4.756   2.131   9.805
17158SOL     OW53480   4.824   2.550  10.743
17158SOL    HW153481   4.765   2.476  10.764
17158SOL    HW253482   4.913   2.512  10.756
17159SOL     OW53483   4.949   3.432  10.103
17159SOL    HW153484   4.950   3.493  10.028
17159SOL    HW253485   5.015   3.470  10.162
17160SOL     OW53486   4.188   3.030  10.045
17160SOL    HW153487   4.112   2.998  10.099
17160SOL    HW253488   4.158   3.004   9.955
17161SOL     OW53489   4.982   3.673   9.915
17161SOL    HW153490   5.028   3.745   9.868
17161SOL    HW253491   4.931   3.720   9.983
17162SOL     OW53492   4.782   2.396   9.326
17162SOL    HW153493   4.733   2.478   9.312
17162SOL    HW253494   4.848   2.419   9.393
17163SOL     OW53495   3.797   2.420  10.707
17163SOL    HW153496   3.894   2.415  10.694
17163SOL    HW253497   3.789   2.499  10.764
17164SOL     OW53498   4.293   2.081  10.474
17164SOL    HW153499   4.326   2.004  10.521
17164SOL    HW253500   4.200   2.082  10.502
17165SOL     OW53501   4.599   2.331   9.973
17165SOL    HW153502   4.542   2.377   9.910
17165SOL    HW253503   4.619   2.248   9.926
17166SOL     OW53504   4.781   1.931  10.078
17166SOL    HW153505   4.735   1.927   9.994
17166SOL    HW253506   4.745   1.853  10.126
17167SOL     OW53507   5.140   3.030  10.192
17167SOL    HW153508   5.078   2.959  10.213
17167SOL    HW253509   5.140   3.029  10.095
17168SOL     OW53510   5.190   2.460  10.292
17168SOL    HW153511   5.145   2.375  10.300
17168SOL    HW253512   5.260   2.458  10.359
17169SOL     OW53513   5.559   2.692   9.694
17169SOL    HW153514   5.614   2.640   9.756
17169SOL    HW253515   5.543   2.625   9.624
17170SOL     OW53516   4.226   3.282   9.425
17170SOL    HW153517   4.145   3.271   9.478
17170SOL    HW253518   4.206   3.231   9.346
17171SOL     OW53519   5.408   3.142   9.962
17171SOL    HW153520   5.505   3.144   9.976
17171SOL    HW253521   5.377   3.229   9.994
17172SOL     OW53522   5.131   2.456   9.373
17172SOL    HW153523   5.084   2.429   9.454
17172SOL    HW253524   5.221   2.425   9.391
17173SOL     OW53525   4.242   2.095   9.624
17173SOL    HW153526   4.285   2.069   9.541
17173SOL    HW253527   4.206   2.182   9.599
17174SOL     OW53528   5.483   3.088  10.874
17174SOL    HW153529   5.575   3.066  10.893
17174SOL    HW253530   5.477   3.180  10.903
17175SOL     OW53531   4.768   3.247  10.686
17175SOL    HW153532   4.691   3.195  10.714
17175SOL    HW253533   4.841   3.183  10.693
17176SOL     OW53534   4.840   3.101  10.419
17176SOL    HW153535   4.753   3.093  10.460
17176SOL    HW253536   4.818   3.138  10.331
17177SOL     OW53537   5.347   2.960  10.381
17177SOL    HW153538   5.358   3.018  10.458
17177SOL    HW253539   5.278   3.007  10.331
17178SOL     OW53540   4.652   1.983  10.683
17178SOL    HW153541   4.677   1.935  10.601
17178SOL    HW253542   4.654   2.075  10.651
17179SOL     OW53543   4.425   2.917   9.656
17179SOL    HW153544   4.418   2.900   9.751
17179SOL    HW253545   4.507   2.868   9.633
17180SOL     OW53546   4.158   2.673  10.574
17180SOL    HW153547   4.225   2.673  10.645
17180SOL    HW253548   4.117   2.585  10.584
17181SOL     OW53549   4.981   2.219  10.625
17181SOL    HW153550   5.016   2.308  10.649
17181SOL    HW253551   4.928   2.240  10.547
17182SOL     OW53552   3.793   3.429  10.638
17182SOL    HW153553   3.784   3.515  10.595
17182SOL    HW253554   3.889   3.419  10.649
17183SOL     OW53555   4.105   2.965   9.805
17183SOL    HW153556   4.117   3.034   9.739
17183SOL    HW253557   4.080   2.888   9.750
17184SOL     OW53558   4.265   2.402  10.156
17184SOL    HW153559   4.292   2.467  10.087
17184SOL    HW253560   4.328   2.421  10.227
17185SOL     OW53561   4.954   3.202   9.705
17185SOL    HW153562   4.992   3.281   9.746
17185SOL    HW253563   4.860   3.211   9.732
17186SOL     OW53564   5.014   3.319  10.466
17186SOL    HW153565   5.072   3.321  10.545
17186SOL    HW253566   4.958   3.242  10.482
17187SOL     OW53567   5.303   2.474   9.790
17187SOL    HW153568   5.255   2.533   9.850
17187SOL    HW253569   5.336   2.535   9.722
17188SOL     OW53570   4.062   3.365  10.636
17188SOL    HW153571   4.047   3.336  10.544
17188SOL    HW253572   4.157   3.385  10.636
17189SOL     OW53573   4.179   2.568  10.934
17189SOL    HW153574   4.235   2.615  10.870
17189SOL    HW253575   4.196   2.475  10.913
17190SOL     OW53576   5.325   2.610  10.968
17190SOL    HW153577   5.285   2.675  11.025
17190SOL    HW253578   5.393   2.663  10.923
17191SOL     OW53579   4.282   2.760  10.345
17191SOL    HW153580   4.335   2.840  10.355
17191SOL    HW253581   4.251   2.742  10.437
17192SOL     OW53582   5.059   2.711  10.349
17192SOL    HW153583   4.984   2.688  10.293
17192SOL    HW253584   5.111   2.629  10.345
17193SOL     OW53585   4.949   2.389   9.573
17193SOL    HW153586   4.955   2.318   9.640
17193SOL    HW253587   4.883   2.447   9.614
17194SOL     OW53588   4.015   2.074  10.542
17194SOL    HW153589   3.975   2.106  10.625
17194SOL    HW253590   3.992   1.979  10.546
17195SOL     OW53591   3.782   3.147  10.589
17195SOL    HW153592   3.805   3.094  10.668
17195SOL    HW253593   3.768   3.236  10.624
17196SOL     OW53594   4.439   2.506  10.353
17196SOL    HW153595   4.518   2.489  10.299
17196SOL    HW253596   4.405   2.591  10.321
17197SOL     OW53597   4.035   1.927   9.920
17197SOL    HW153598   4.006   2.017   9.942
17197SOL    HW253599   4.036   1.885  10.008
17198SOL     OW53600   5.318   2.240   9.661
17198SOL    HW153601   5.351   2.172   9.722
17198SOL    HW253602   5.307   2.318   9.720
17199SOL     OW53603   4.764   2.629  10.265
17199SOL    HW153604   4.754   2.647  10.360
17199SOL    HW253605   4.742   2.533  10.260
17200SOL     OW53606   4.714   3.409  10.970
17200SOL    HW153607   4.699   3.476  10.900
17200SOL    HW253608   4.680   3.329  10.926
17201SOL     OW53609   5.580   3.360  10.904
17201SOL    HW153610   5.599   3.387  10.812
17201SOL    HW253611   5.663   3.382  10.949
17202SOL     OW53612   4.102   2.778  11.067
17202SOL    HW153613   4.174   2.788   0.029
17202SOL    HW253614   4.127   2.695  11.021
17203SOL     OW53615   5.230   2.110   9.441
17203SOL    HW153616   5.153   2.061   9.474
17203SOL    HW253617   5.263   2.157   9.520
17204SOL     OW53618   5.026   2.700   9.337
17204SOL    HW153619   5.068   2.612   9.346
17204SOL    HW253620   5.048   2.722   9.244
17205SOL     OW53621   4.788   3.220  10.168
17205SOL    HW153622   4.795   3.144  10.106
17205SOL    HW253623   4.857   3.282  10.139
17206SOL     OW53624   4.013   2.683  10.316
17206SOL    HW153625   4.109   2.700  10.315
17206SOL    HW253626   4.010   2.587  10.330
17207SOL     OW53627   4.048   2.395  10.310
17207SOL    HW153628   4.014   2.307  10.289
17207SOL    HW253629   4.119   2.404  10.243
17208SOL     OW53630   3.727   3.188   9.508
17208SOL    HW153631   3.634   3.202   9.476
17208SOL    HW253632   3.722   3.097   9.542
17209SOL     OW53633   3.818   3.655  10.244
17209SOL    HW153634   3.791   3.579  10.189
17209SOL    HW253635   3.910   3.669  10.214
17210SOL     OW53636   4.214   3.450  10.249
17210SOL    HW153637   4.288   3.507  10.275
17210SOL    HW253638   4.257   3.386  10.189
17211SOL     OW53639   4.703   2.650  10.534
17211SOL    HW153640   4.763   2.618  10.605
17211SOL    HW253641   4.617   2.623  10.568
17212SOL     OW53642   3.754   2.366  10.443
17212SOL    HW153643   3.833   2.374  10.389
17212SOL    HW253644   3.788   2.382  10.533
17213SOL     OW53645   4.520   2.427   9.704
17213SOL    HW153646   4.531   2.361   9.634
17213SOL    HW253647   4.447   2.482   9.670
17214SOL     OW53648   5.375   2.480  10.497
17214SOL    HW153649   5.369   2.419  10.572
17214SOL    HW253650   5.459   2.452  10.456
17215SOL     OW53651   3.962   3.405  11.032
17215SOL    HW153652   3.905   3.431   0.007
17215SOL    HW253653   4.016   3.336  11.070
17216SOL     OW53654   4.428   2.336  10.575
17216SOL    HW153655   4.373   2.262  10.548
17216SOL    HW253656   4.412   2.402  10.504
17217SOL     OW53657   4.662   3.556  10.742
17217SOL    HW153658   4.638   3.517  10.657
17217SOL    HW253659   4.640   3.650  10.732
17218SOL     OW53660   4.161   2.331   9.516
17218SOL    HW153661   4.228   2.401   9.521
17218SOL    HW253662   4.080   2.385   9.500
17219SOL     OW53663   3.872   3.005  10.798
17219SOL    HW153664   3.871   2.950  10.879
17219SOL    HW253665   3.897   2.939  10.729
17220SOL     OW53666   5.031   2.916  10.544
17220SOL    HW153667   5.050   2.851  10.473
17220SOL    HW253668   4.967   2.975  10.500
17221SOL     OW53669   5.035   2.720   9.604
17221SOL    HW153670   4.952   2.690   9.644
17221SOL    HW253671   5.017   2.714   9.508
17222SOL     OW53672   5.485   3.613  10.440
17222SOL    HW153673   5.554   3.631  10.374
17222SOL    HW253674   5.477   3.515  10.434
17223SOL     OW53675   4.971   3.590  10.448
17223SOL    HW153676   5.056   3.612  10.407
17223SOL    HW253677   4.976   3.493  10.452
17224SOL     OW53678   3.843   3.112  10.331
17224SOL    HW153679   3.832   3.132  10.427
17224SOL    HW253680   3.753   3.086  10.307
17225SOL     OW53681   5.403   2.005   9.799
17225SOL    HW153682   5.487   1.996   9.752
17225SOL    HW253683   5.402   1.926   9.857
17226SOL     OW53684   5.085   3.447   9.803
17226SOL    HW153685   5.135   3.470   9.723
17226SOL    HW253686   5.042   3.532   9.826
17227SOL     OW53687   4.977   2.788   9.981
17227SOL    HW153688   5.055   2.731  10.000
17227SOL    HW253689   5.018   2.861   9.931
17228SOL     OW53690   4.529   3.109  10.745
17228SOL    HW153691   4.504   3.150  10.830
17228SOL    HW253692   4.454   3.135  10.689
17229SOL     OW53693   4.382   3.490   9.466
17229SOL    HW153694   4.403   3.500   9.371
17229SOL    HW253695   4.326   3.409   9.463
17230SOL     OW53696   5.351   3.573  10.679
17230SOL    HW153697   5.403   3.596  10.600
17230SOL    HW253698   5.334   3.661  10.718
17231SOL     OW53699   5.591   2.037  10.255
17231SOL    HW153700   5.611   1.943  10.238
17231SOL    HW253701   5.498   2.046  10.224
17232SOL     OW53702   3.977   2.175  10.007
17232SOL    HW153703   3.892   2.222   9.993
17232SOL    HW253704   3.983   2.172  10.104
17233SOL     OW53705   4.936   3.462   9.313
17233SOL    HW153706   4.918   3.373   9.350
17233SOL    HW253707   4.865   3.472   9.246
17234SOL     OW53708   4.545   2.847  10.696
17234SOL    HW153709   4.579   2.847  10.606
17234SOL    HW253710   4.551   2.941  10.721
17235SOL     OW53711   4.646   2.789   9.589
17235SOL    HW153712   4.721   2.825   9.537
17235SOL    HW253713   4.679   2.703   9.619
17236SOL     OW53714   4.095   3.150  10.800
17236SOL    HW153715   4.070   3.223  10.741
17236SOL    HW253716   4.013   3.097  10.801
17237SOL     OW53717   5.342   3.156  10.581
17237SOL    HW153718   5.402   3.138  10.655
17237SOL    HW253719   5.283   3.224  10.618
17238SOL     OW53720   4.774   2.985  10.041
17238SOL    HW153721   4.693   2.935  10.060
17238SOL    HW253722   4.835   2.913  10.020
17239SOL     OW53723   4.758   2.096  10.291
17239SOL    HW153724   4.755   2.049  10.205
17239SOL    HW253725   4.752   2.021  10.353
17240SOL     OW53726   4.343   3.338   9.806
17240SOL    HW153727   4.388   3.300   9.728
17240SOL    HW253728   4.267   3.382   9.767
17241SOL     OW53729   5.434   2.255  10.694
17241SOL    HW153730   5.504   2.322  10.701
17241SOL    HW253731   5.469   2.198  10.622
17242SOL     OW53732   3.976   3.249   9.585
17242SOL    HW153733   3.880   3.234   9.576
17242SOL    HW253734   3.984   3.262   9.682
17243SOL     OW53735   3.859   2.875  11.021
17243SOL    HW153736   3.794   2.849  11.088
17243SOL    HW253737   3.944   2.841  11.057
17244SOL     OW53738   4.388   2.058  10.779
17244SOL    HW153739   4.475   2.045  10.738
17244SOL    HW253740   4.414   2.084  10.870
17245SOL     OW53741   3.823   2.194   9.325
17245SOL    HW153742   3.727   2.202   9.317
17245SOL    HW253743   3.853   2.272   9.273
17246SOL     OW53744   5.149   2.707  10.708
17246SOL    HW153745   5.102   2.780  10.667
17246SOL    HW253746   5.241   2.727  10.685
17247SOL     OW53747   3.768   2.026   9.604
17247SOL    HW153748   3.765   2.115   9.568
17247SOL    HW253749   3.851   1.992   9.566
17248SOL     OW53750   4.924   3.213   9.429
17248SOL    HW153751   4.844   3.160   9.433
17248SOL    HW253752   4.950   3.215   9.523
17249SOL     OW53753   4.351   2.674  10.756
17249SOL    HW153754   4.411   2.750  10.744
17249SOL    HW253755   4.416   2.603  10.770
17250SOL     OW53756   5.232   3.615  10.292
17250SOL    HW153757   5.269   3.662  10.216
17250SOL    HW253758   5.309   3.608  10.351
17251SOL     OW53759   4.438   2.416  11.034
17251SOL    HW153760   4.484   2.486  11.084
17251SOL    HW253761   4.488   2.337  11.056
17252SOL     OW53762   4.091   3.585  10.871
17252SOL    HW153763   4.019   3.647  10.854
17252SOL    HW253764   4.049   3.520  10.931
17253SOL     OW53765   5.399   2.745  10.576
17253SOL    HW153766   5.386   2.654  10.543
17253SOL    HW253767   5.378   2.800  10.499
17254SOL     OW53768   4.925   2.184   9.777
17254SOL    HW153769   4.991   2.113   9.776
17254SOL    HW253770   4.954   2.236   9.855
17255SOL     OW53771   4.328   2.602   9.967
17255SOL    HW153772   4.355   2.693   9.951
17255SOL    HW253773   4.249   2.594   9.911
17256SOL     OW53774   5.487   2.154  10.942
17256SOL    HW153775   5.464   2.197  10.858
17256SOL    HW253776   5.420   2.187  11.002
17257SOL     OW53777   5.477   2.801  10.829
17257SOL    HW153778   5.472   2.898  10.838
17257SOL    HW253779   5.463   2.789  10.733
17258SOL     OW53780   4.579   3.222   9.343
17258SOL    HW153781   4.548   3.235   9.434
17258SOL    HW253782   4.605   3.310   9.312
17259SOL     OW53783   4.395   3.650  10.257
17259SOL    HW153784   4.381   3.743  10.233
17259SOL    HW253785   4.487   3.635  10.234
17260SOL     OW53786   4.590   2.812  10.154
17260SOL    HW153787   4.650   2.742  10.184
17260SOL    HW253788   4.572   2.861  10.236
17261SOL     OW53789   4.831   2.875   9.412
17261SOL    HW153790   4.793   2.920   9.334
17261SOL    HW253791   4.880   2.803   9.369
17262SOL     OW53792   5.570   3.406  10.175
17262SOL    HW153793   5.494   3.398  10.117
17262SOL    HW253794   5.540   3.365  10.258
17263SOL     OW53795   3.810   3.115   9.988
17263SOL    HW153796   3.793   3.049  10.058
17263SOL    HW253797   3.893   3.084   9.951
17264SOL     OW53798   4.412   3.281  10.933
17264SOL    HW153799   4.346   3.225  10.978
17264SOL    HW253800   4.359   3.357  10.908
17265SOL     OW53801   5.514   2.067  10.517
17265SOL    HW153802   5.555   1.984  10.542
17265SOL    HW253803   5.544   2.078  10.425
17266SOL     OW53804   4.159   2.294   9.833
17266SOL    HW153805   4.202   2.223   9.785
17266SOL    HW253806   4.104   2.248   9.898
17267SOL     OW53807   5.444   3.349  10.413
17267SOL    HW153808   5.362   3.317  10.371
17267SOL    HW253809   5.445   3.293  10.493
17268SOL     OW53810   4.068   2.405  10.594
17268SOL    HW153811   4.125   2.347  10.648
17268SOL    HW253812   4.073   2.366  10.505
17269SOL     OW53813   4.547   3.462   9.987
17269SOL    HW153814   4.534   3.506   9.903
17269SOL    HW253815   4.468   3.406   9.996
17270SOL     OW53816   5.135   2.074  10.435
17270SOL    HW153817   5.197   2.009  10.471
17270SOL    HW253818   5.105   2.123  10.513
17271SOL     OW53819   4.735   1.864  10.459
17271SOL    HW153820   4.683   1.794  10.418
17271SOL    HW253821   4.825   1.823  10.463
17272SOL     OW53822   4.513   3.201   9.622
17272SOL    HW153823   4.473   3.113   9.622
17272SOL    HW253824   4.584   3.191   9.686
17273SOL     OW53825   4.332   3.423  10.610
17273SOL    HW153826   4.337   3.511  10.655
17273SOL    HW253827   4.410   3.428  10.552
17274SOL     OW53828   5.046   1.871   9.486
17274SOL    HW153829   5.046   1.816   9.407
17274SOL    HW253830   4.955   1.853   9.521
17275SOL     OW53831   5.000   2.318   9.994
17275SOL    HW153832   4.952   2.403   9.990
17275SOL    HW253833   4.996   2.297  10.089
17276SOL     OW53834   5.329   2.068  10.182
17276SOL    HW153835   5.250   2.080  10.237
17276SOL    HW253836   5.331   2.148  10.127
17277SOL     OW53837   3.767   2.936   9.622
17277SOL    HW153838   3.860   2.932   9.593
17277SOL    HW253839   3.750   2.843   9.646
17278SOL     OW53840   4.596   3.513   9.640
17278SOL    HW153841   4.517   3.497   9.584
17278SOL    HW253842   4.573   3.594   9.690
17279SOL     OW53843   3.964   4.383   0.144
17279SOL    HW153844   3.888   4.335   0.176
17279SOL    HW253845   4.000   4.329   0.073
17280SOL     OW53846   3.953   4.005   1.002
17280SOL    HW153847   3.979   3.980   1.093
17280SOL    HW253848   3.867   3.960   0.994
17281SOL     OW53849   3.724   4.137   0.631
17281SOL    HW153850   3.643   4.159   0.681
17281SOL    HW253851   3.699   4.052   0.593
17282SOL     OW53852   4.298   5.019   1.189
17282SOL    HW153853   4.210   5.017   1.150
17282SOL    HW253854   4.305   5.111   1.220
17283SOL     OW53855   5.267   5.256   0.723
17283SOL    HW153856   5.232   5.220   0.808
17283SOL    HW253857   5.196   5.236   0.660
17284SOL     OW53858   4.854   4.413   0.718
17284SOL    HW153859   4.892   4.499   0.690
17284SOL    HW253860   4.822   4.435   0.807
17285SOL     OW53861   5.507   4.325   0.218
17285SOL    HW153862   5.448   4.386   0.172
17285SOL    HW253863   5.445   4.273   0.271
17286SOL     OW53864   4.489   4.890   1.039
17286SOL    HW153865   4.417   4.929   1.091
17286SOL    HW253866   4.516   4.967   0.986
17287SOL     OW53867   4.604   4.473   1.797
17287SOL    HW153868   4.584   4.534   1.869
17287SOL    HW253869   4.630   4.532   1.724
17288SOL     OW53870   4.416   4.736   0.645
17288SOL    HW153871   4.474   4.715   0.721
17288SOL    HW253872   4.342   4.783   0.687
17289SOL     OW53873   4.421   4.879   1.809
17289SOL    HW153874   4.465   4.963   1.836
17289SOL    HW253875   4.335   4.911   1.776
17290SOL     OW53876   4.047   5.141   1.067
17290SOL    HW153877   3.974   5.101   1.018
17290SOL    HW253878   4.094   5.194   0.999
17291SOL     OW53879   5.189   5.224   1.377
17291SOL    HW153880   5.247   5.302   1.388
17291SOL    HW253881   5.122   5.240   1.445
17292SOL     OW53882   4.152   4.118   1.534
17292SOL    HW153883   4.229   4.061   1.525
17292SOL    HW253884   4.078   4.058   1.511
17293SOL     OW53885   5.334   4.184   0.743
17293SOL    HW153886   5.247   4.199   0.703
17293SOL    HW253887   5.346   4.265   0.793
17294SOL     OW53888   3.947   5.442   0.496
17294SOL    HW153889   3.981   5.524   0.538
17294SOL    HW253890   3.994   5.443   0.411
17295SOL     OW53891   4.848   5.076   1.654
17295SOL    HW153892   4.891   5.081   1.740
17295SOL    HW253893   4.809   4.987   1.659
17296SOL     OW53894   3.977   5.152   0.524
17296SOL    HW153895   3.969   5.248   0.539
17296SOL    HW253896   3.908   5.116   0.582
17297SOL     OW53897   3.994   4.815   0.909
17297SOL    HW153898   3.996   4.738   0.968
17297SOL    HW253899   3.935   4.875   0.958
17298SOL     OW53900   4.326   5.521   1.409
17298SOL    HW153901   4.256   5.495   1.471
17298SOL    HW253902   4.351   5.610   1.441
17299SOL     OW53903   4.316   4.717   0.172
17299SOL    HW153904   4.385   4.746   0.111
17299SOL    HW253905   4.351   4.752   0.257
17300SOL     OW53906   5.334   3.838   1.501
17300SOL    HW153907   5.323   3.913   1.442
17300SOL    HW253908   5.340   3.883   1.587
17301SOL     OW53909   3.844   4.386   0.562
17301SOL    HW153910   3.807   4.298   0.581
17301SOL    HW253911   3.837   4.431   0.648
17302SOL     OW53912   5.577   5.476   0.354
17302SOL    HW153913   5.647   5.438   0.412
17302SOL    HW253914   5.627   5.543   0.305
17303SOL     OW53915   3.799   5.326   0.125
17303SOL    HW153916   3.776   5.238   0.159
17303SOL    HW253917   3.769   5.382   0.199
17304SOL     OW53918   5.431   4.629   0.628
17304SOL    HW153919   5.507   4.607   0.571
17304SOL    HW253920   5.386   4.696   0.573
17305SOL     OW53921   5.347   4.830   0.471
17305SOL    HW153922   5.395   4.834   0.387
17305SOL    HW253923   5.371   4.914   0.516
17306SOL     OW53924   3.842   4.472   1.582
17306SOL    HW153925   3.938   4.486   1.585
17306SOL    HW253926   3.810   4.553   1.626
17307SOL     OW53927   4.301   5.124   0.745
17307SOL    HW153928   4.271   5.031   0.749
17307SOL    HW253929   4.294   5.141   0.649
17308SOL     OW53930   5.011   4.944   1.422
17308SOL    HW153931   5.042   4.871   1.365
17308SOL    HW253932   5.065   4.932   1.503
17309SOL     OW53933   4.562   3.718   0.489
17309SOL    HW153934   4.588   3.812   0.484
17309SOL    HW253935   4.465   3.726   0.497
17310SOL     OW53936   3.896   4.710   1.254
17310SOL    HW153937   3.988   4.679   1.250
17310SOL    HW253938   3.848   4.639   1.211
17311SOL     OW53939   4.900   5.525   1.620
17311SOL    HW153940   4.905   5.589   1.548
17311SOL    HW253941   4.923   5.442   1.574
17312SOL     OW53942   4.058   3.948   1.788
17312SOL    HW153943   4.105   4.028   1.812
17312SOL    HW253944   3.968   3.970   1.817
17313SOL     OW53945   5.195   5.154   0.960
17313SOL    HW153946   5.132   5.171   1.034
17313SOL    HW253947   5.167   5.065   0.930
17314SOL     OW53948   5.381   5.460   0.584
17314SOL    HW153949   5.362   5.408   0.503
17314SOL    HW253950   5.356   5.395   0.652
17315SOL     OW53951   4.317   4.428   0.266
17315SOL    HW153952   4.341   4.516   0.233
17315SOL    HW253953   4.255   4.447   0.338
17316SOL     OW53954   4.994   4.051   0.910
17316SOL    HW153955   4.905   4.022   0.936
17316SOL    HW253956   5.050   4.012   0.980
17317SOL     OW53957   5.295   5.376   0.321
17317SOL    HW153958   5.390   5.379   0.304
17317SOL    HW253959   5.262   5.356   0.232
17318SOL     OW53960   4.530   4.344   1.462
17318SOL    HW153961   4.511   4.309   1.551
17318SOL    HW253962   4.478   4.284   1.406
17319SOL     OW53963   5.120   4.210   1.670
17319SOL    HW153964   5.124   4.266   1.750
17319SOL    HW253965   5.178   4.135   1.694
17320SOL     OW53966   4.692   4.607   1.579
17320SOL    HW153967   4.730   4.524   1.542
17320SOL    HW253968   4.646   4.643   1.501
17321SOL     OW53969   4.702   4.124   1.234
17321SOL    HW153970   4.611   4.145   1.259
17321SOL    HW253971   4.692   4.070   1.154
17322SOL     OW53972   4.753   4.412   0.408
17322SOL    HW153973   4.767   4.428   0.503
17322SOL    HW253974   4.673   4.355   0.410
17323SOL     OW53975   3.832   4.541   0.783
17323SOL    HW153976   3.903   4.534   0.849
17323SOL    HW253977   3.778   4.612   0.820
17324SOL     OW53978   3.835   5.555   1.564
17324SOL    HW153979   3.844   5.542   1.662
17324SOL    HW253980   3.741   5.571   1.554
17325SOL     OW53981   4.605   4.100   0.206
17325SOL    HW153982   4.659   4.151   0.142
17325SOL    HW253983   4.619   4.008   0.177
17326SOL     OW53984   5.446   4.310   1.841
17326SOL    HW153985   5.408   4.386   1.792
17326SOL    HW253986   5.471   4.253   1.767
17327SOL     OW53987   5.088   4.887   0.572
17327SOL    HW153988   5.168   4.858   0.525
17327SOL    HW253989   5.043   4.939   0.503
17328SOL     OW53990   4.275   3.929   0.897
17328SOL    HW153991   4.287   3.943   0.993
17328SOL    HW253992   4.270   4.019   0.861
17329SOL     OW53993   4.711   5.155   0.500
17329SOL    HW153994   4.689   5.231   0.441
17329SOL    HW253995   4.722   5.199   0.585
17330SOL     OW53996   4.067   5.533   0.854
17330SOL    HW153997   4.116   5.449   0.865
17330SOL    HW253998   4.136   5.598   0.873
17331SOL     OW53999   5.540   4.782   0.893
17331SOL    HW154000   5.491   4.761   0.812
17331SOL    HW254001   5.472   4.771   0.961
17332SOL     OW54002   4.941   5.289   1.489
17332SOL    HW154003   4.921   5.221   1.556
17332SOL    HW254004   4.899   5.249   1.411
17333SOL     OW54005   4.042   4.686   0.273
17333SOL    HW154006   4.131   4.682   0.236
17333SOL    HW254007   4.009   4.597   0.256
17334SOL     OW54008   5.206   4.474   0.709
17334SOL    HW154009   5.206   4.460   0.805
17334SOL    HW254010   5.288   4.525   0.693
17335SOL     OW54011   4.182   4.994   1.722
17335SOL    HW154012   4.141   4.996   1.633
17335SOL    HW254013   4.103   5.004   1.778
17336SOL     OW54014   4.808   5.492   0.207
17336SOL    HW154015   4.762   5.436   0.272
17336SOL    HW254016   4.840   5.426   0.141
17337SOL     OW54017   3.892   4.012   1.497
17337SOL    HW154018   3.821   4.069   1.531
17337SOL    HW254019   3.876   3.929   1.543
17338SOL     OW54020   5.343   5.070   0.100
17338SOL    HW154021   5.305   5.153   0.070
17338SOL    HW254022   5.289   5.004   0.051
17339SOL     OW54023   4.181   5.473   0.306
17339SOL    HW154024   4.222   5.513   0.384
17339SOL    HW254025   4.256   5.471   0.244
17340SOL     OW54026   5.122   3.828   0.447
17340SOL    HW154027   5.128   3.790   0.358
17340SOL    HW254028   5.213   3.860   0.462
17341SOL     OW54029   3.978   5.524   1.224
17341SOL    HW154030   4.030   5.453   1.265
17341SOL    HW254031   3.963   5.491   1.134
17342SOL     OW54032   4.683   5.422   0.878
17342SOL    HW154033   4.767   5.375   0.883
17342SOL    HW254034   4.633   5.367   0.814
17343SOL     OW54035   4.124   4.410   0.466
17343SOL    HW154036   4.133   4.313   0.477
17343SOL    HW254037   4.034   4.423   0.500
17344SOL     OW54038   5.260   3.987   1.730
17344SOL    HW154039   5.262   3.987   1.829
17344SOL    HW254040   5.201   3.912   1.714
17345SOL     OW54041   4.344   3.822   0.100
17345SOL    HW154042   4.439   3.818   0.118
17345SOL    HW254043   4.337   3.813   0.004
17346SOL     OW54044   4.502   3.985   1.734
17346SOL    HW154045   4.581   3.928   1.742
17346SOL    HW254046   4.451   3.962   1.813
17347SOL     OW54047   4.608   5.274   1.188
17347SOL    HW154048   4.600   5.242   1.096
17347SOL    HW254049   4.670   5.210   1.226
17348SOL     OW54050   5.065   4.315   1.425
17348SOL    HW154051   5.099   4.286   1.512
17348SOL    HW254052   5.112   4.399   1.412
17349SOL     OW54053   4.533   5.132   0.928
17349SOL    HW154054   4.619   5.122   0.882
17349SOL    HW254055   4.469   5.134   0.855
17350SOL     OW54056   4.669   4.236   0.908
17350SOL    HW154057   4.653   4.222   0.811
17350SOL    HW254058   4.699   4.148   0.935
17351SOL     OW54059   4.301   3.771   0.495
17351SOL    HW154060   4.224   3.782   0.553
17351SOL    HW254061   4.288   3.847   0.434
17352SOL     OW54062   5.163   4.889  11.099
17352SOL    HW154063   5.215   4.819   0.042
17352SOL    HW254064   5.092   4.905   0.060
17353SOL     OW54065   4.002   3.794   0.218
17353SOL    HW154066   4.042   3.838   0.141
17353SOL    HW254067   4.070   3.727   0.240
17354SOL     OW54068   4.664   3.983   0.466
17354SOL    HW154069   4.648   4.030   0.383
17354SOL    HW254070   4.759   3.999   0.478
17355SOL     OW54071   4.813   4.393   1.475
17355SOL    HW154072   4.757   4.314   1.470
17355SOL    HW254073   4.904   4.360   1.465
17356SOL     OW54074   4.956   5.309   0.800
17356SOL    HW154075   4.969   5.375   0.729
17356SOL    HW254076   5.027   5.330   0.861
17357SOL     OW54077   4.200   4.869   0.736
17357SOL    HW154078   4.127   4.846   0.798
17357SOL    HW254079   4.156   4.854   0.650
17358SOL     OW54080   4.984   5.534   0.632
17358SOL    HW154081   5.032   5.605   0.587
17358SOL    HW254082   4.925   5.583   0.691
17359SOL     OW54083   4.752   4.253   0.036
17359SOL    HW154084   4.727   4.346   0.030
17359SOL    HW254085   4.847   4.259   0.057
17360SOL     OW54086   3.772   4.289   1.394
17360SOL    HW154087   3.867   4.275   1.379
17360SOL    HW254088   3.773   4.365   1.456
17361SOL     OW54089   4.293   3.954   1.169
17361SOL    HW154090   4.339   3.891   1.226
17361SOL    HW254091   4.200   3.941   1.198
17362SOL     OW54092   4.616   4.172   0.658
17362SOL    HW154093   4.575   4.234   0.596
17362SOL    HW254094   4.619   4.091   0.604
17363SOL     OW54095   4.724   3.805   0.775
17363SOL    HW154096   4.690   3.787   0.687
17363SOL    HW254097   4.707   3.722   0.823
17364SOL     OW54098   5.146   4.908   0.873
17364SOL    HW154099   5.074   4.844   0.883
17364SOL    HW254100   5.158   4.906   0.776
17365SOL     OW54101   5.194   4.312   0.985
17365SOL    HW154102   5.150   4.227   0.981
17365SOL    HW254103   5.255   4.303   1.061
17366SOL     OW54104   5.593   4.574   0.388
17366SOL    HW154105   5.633   4.496   0.430
17366SOL    HW254106   5.543   4.536   0.315
17367SOL     OW54107   4.219   5.174   0.144
17367SOL    HW154108   4.142   5.148   0.199
17367SOL    HW254109   4.210   5.112   0.069
17368SOL     OW54110   5.401   5.031   0.647
17368SOL    HW154111   5.497   5.034   0.660
17368SOL    HW254112   5.368   5.113   0.688
17369SOL     OW54113   5.087   4.313   0.067
17369SOL    HW154114   5.060   4.277   0.153
17369SOL    HW254115   5.166   4.261   0.047
17370SOL     OW54116   4.248   3.958   0.314
17370SOL    HW154117   4.273   3.907   0.234
17370SOL    HW254118   4.218   4.042   0.274
17371SOL     OW54119   5.450   4.956   1.571
17371SOL    HW154120   5.538   4.915   1.574
17371SOL    HW254121   5.473   5.049   1.586
17372SOL     OW54122   4.795   5.088   1.338
17372SOL    HW154123   4.717   5.055   1.386
17372SOL    HW254124   4.866   5.034   1.378
17373SOL     OW54125   5.335   5.334   1.632
17373SOL    HW154126   5.342   5.375   1.544
17373SOL    HW254127   5.415   5.278   1.634
17374SOL     OW54128   4.852   4.947   1.097
17374SOL    HW154129   4.788   4.977   1.163
17374SOL    HW254130   4.814   4.982   1.015
17375SOL     OW54131   5.324   4.818   1.079
17375SOL    HW154132   5.333   4.885   1.149
17375SOL    HW254133   5.268   4.865   1.015
17376SOL     OW54134   4.646   3.815   1.410
17376SOL    HW154135   4.673   3.798   1.318
17376SOL    HW254136   4.723   3.864   1.445
17377SOL     OW54137   4.728   4.837   1.734
17377SOL    HW154138   4.639   4.864   1.761
17377SOL    HW254139   4.712   4.760   1.676
17378SOL     OW54140   4.462   4.795   0.390
17378SOL    HW154141   4.448   4.774   0.485
17378SOL    HW254142   4.527   4.727   0.362
17379SOL     OW54143   4.140   4.545   1.262
17379SOL    HW154144   4.213   4.540   1.328
17379SOL    HW254145   4.099   4.457   1.270
17380SOL     OW54146   5.009   4.107   1.262
17380SOL    HW154147   5.030   4.185   1.317
17380SOL    HW254148   4.919   4.127   1.232
17381SOL     OW54149   3.811   5.293   1.349
17381SOL    HW154150   3.807   5.381   1.309
17381SOL    HW254151   3.906   5.272   1.342
17382SOL     OW54152   4.072   4.831   0.502
17382SOL    HW154153   4.075   4.906   0.441
17382SOL    HW254154   4.065   4.757   0.439
17383SOL     OW54155   4.265   4.259   0.861
17383SOL    HW154156   4.293   4.324   0.794
17383SOL    HW254157   4.331   4.273   0.931
17384SOL     OW54158   4.946   5.064   0.395
17384SOL    HW154159   4.993   5.140   0.431
17384SOL    HW254160   4.856   5.078   0.430
17385SOL     OW54161   5.023   5.188   1.154
17385SOL    HW154162   5.070   5.184   1.240
17385SOL    HW254163   4.964   5.111   1.160
17386SOL     OW54164   5.296   4.338   0.451
17386SOL    HW154165   5.253   4.375   0.529
17386SOL    HW254166   5.292   4.413   0.391
17387SOL     OW54167   4.068   5.231   1.308
17387SOL    HW154168   4.062   5.193   1.218
17387SOL    HW254169   4.163   5.255   1.310
17388SOL     OW54170   4.165   4.452   1.632
17388SOL    HW154171   4.216   4.495   1.560
17388SOL    HW254172   4.204   4.363   1.634
17389SOL     OW54173   5.354   4.499   1.683
17389SOL    HW154174   5.264   4.537   1.684
17389SOL    HW254175   5.395   4.546   1.608
17390SOL     OW54176   4.722   3.837   1.759
17390SOL    HW154177   4.787   3.908   1.744
17390SOL    HW254178   4.766   3.762   1.715
17391SOL     OW54179   4.223   3.737   1.757
17391SOL    HW154180   4.182   3.678   1.691
17391SOL    HW254181   4.158   3.810   1.760
17392SOL     OW54182   4.330   4.613   1.056
17392SOL    HW154183   4.348   4.708   1.053
17392SOL    HW254184   4.263   4.605   1.126
17393SOL     OW54185   5.074   4.579   1.016
17393SOL    HW154186   4.987   4.548   0.986
17393SOL    HW254187   5.124   4.496   1.018
17394SOL     OW54188   4.961   4.228   0.284
17394SOL    HW154189   4.961   4.158   0.352
17394SOL    HW254190   4.909   4.297   0.327
17395SOL     OW54191   4.033   3.928   1.250
17395SOL    HW154192   3.981   3.957   1.327
17395SOL    HW254193   4.008   3.833   1.245
17396SOL     OW54194   3.741   5.032   1.285
17396SOL    HW154195   3.779   4.969   1.350
17396SOL    HW254196   3.769   5.118   1.318
17397SOL     OW54197   4.443   4.356   1.056
17397SOL    HW154198   4.526   4.338   1.010
17397SOL    HW254199   4.424   4.451   1.040
17398SOL     OW54200   5.494   4.676   1.853
17398SOL    HW154201   5.450   4.617   1.791
17398SOL    HW254202   5.426   4.688   1.920
17399SOL     OW54203   4.060   3.802   0.610
17399SOL    HW154204   4.025   3.888   0.638
17399SOL    HW254205   4.050   3.750   0.691
17400SOL     OW54206   5.323   4.088   0.348
17400SOL    HW154207   5.365   4.029   0.413
17400SOL    HW254208   5.308   4.171   0.398
17401SOL     OW54209   4.792   4.471   0.978
17401SOL    HW154210   4.769   4.484   1.072
17401SOL    HW254211   4.755   4.382   0.961
17402SOL     OW54212   4.700   5.293   1.700
17402SOL    HW154213   4.690   5.344   1.617
17402SOL    HW254214   4.734   5.208   1.667
17403SOL     OW54215   5.574   5.211   1.602
17403SOL    HW154216   5.597   5.241   1.512
17403SOL    HW254217   5.652   5.240   1.653
17404SOL     OW54218   4.072   4.627   1.805
17404SOL    HW154219   4.152   4.655   1.852
17404SOL    HW254220   4.103   4.550   1.754
17405SOL     OW54221   5.237   3.985   0.109
17405SOL    HW154222   5.170   3.930   0.152
17405SOL    HW254223   5.282   4.026   0.185
17406SOL     OW54224   5.004   4.569   0.026
17406SOL    HW154225   5.040   4.479   0.042
17406SOL    HW254226   5.075   4.607  11.074
17407SOL     OW54227   4.790   5.086   0.845
17407SOL    HW154228   4.800   5.005   0.789
17407SOL    HW254229   4.860   5.145   0.813
17408SOL     OW54230   4.009   4.530   0.993
17408SOL    HW154231   4.101   4.542   0.964
17408SOL    HW254232   4.010   4.436   1.020
17409SOL     OW54233   4.040   4.259   1.003
17409SOL    HW154234   4.016   4.165   0.994
17409SOL    HW254235   4.114   4.266   0.938
17410SOL     OW54236   4.882   4.087   1.699
17410SOL    HW154237   4.832   4.142   1.764
17410SOL    HW254238   4.967   4.136   1.695
17411SOL     OW54239   4.890   3.921   1.481
17411SOL    HW154240   4.890   3.987   1.553
17411SOL    HW254241   4.933   3.971   1.410
17412SOL     OW54242   3.713   5.070   0.224
17412SOL    HW154243   3.628   5.073   0.175
17412SOL    HW254244   3.727   4.973   0.230
17413SOL     OW54245   3.819   5.506   0.940
17413SOL    HW154246   3.790   5.436   0.878
17413SOL    HW254247   3.910   5.525   0.906
17414SOL     OW54248   4.205   5.297   0.921
17414SOL    HW154249   4.280   5.359   0.925
17414SOL    HW254250   4.235   5.232   0.854
17415SOL     OW54251   4.707   4.494   1.245
17415SOL    HW154252   4.760   4.464   1.321
17415SOL    HW254253   4.619   4.464   1.270
17416SOL     OW54254   3.751   4.249   1.108
17416SOL    HW154255   3.832   4.233   1.058
17416SOL    HW254256   3.786   4.270   1.196
17417SOL     OW54257   3.942   4.236   1.702
17417SOL    HW154258   4.002   4.199   1.635
17417SOL    HW254259   3.894   4.305   1.655
17418SOL     OW54260   5.115   4.640   1.655
17418SOL    HW154261   5.135   4.735   1.653
17418SOL    HW254262   5.106   4.620   1.560
17419SOL     OW54263   4.520   4.274   0.392
17419SOL    HW154264   4.545   4.209   0.323
17419SOL    HW254265   4.453   4.327   0.347
17420SOL     OW54266   5.356   4.344   1.203
17420SOL    HW154267   5.332   4.282   1.273
17420SOL    HW254268   5.440   4.306   1.168
17421SOL     OW54269   3.968   5.264   1.725
17421SOL    HW154270   3.968   5.326   1.799
17421SOL    HW254271   3.970   5.178   1.772
17422SOL     OW54272   4.401   4.200   1.265
17422SOL    HW154273   4.357   4.122   1.227
17422SOL    HW254274   4.409   4.260   1.188
17423SOL     OW54275   4.642   5.421   1.476
17423SOL    HW154276   4.635   5.391   1.385
17423SOL    HW254277   4.645   5.518   1.467
17424SOL     OW54278   4.171   4.193   0.193
17424SOL    HW154279   4.235   4.267   0.200
17424SOL    HW254280   4.092   4.235   0.228
17425SOL     OW54281   3.832   4.853   1.471
17425SOL    HW154282   3.850   4.801   1.553
17425SOL    HW254283   3.855   4.790   1.400
17426SOL     OW54284   5.044   4.757   1.227
17426SOL    HW154285   5.061   4.704   1.147
17426SOL    HW254286   4.977   4.819   1.195
17427SOL     OW54287   5.034   4.583   0.330
17427SOL    HW154288   4.946   4.545   0.322
17427SOL    HW254289   5.066   4.589   0.239
17428SOL     OW54290   5.471   5.480   1.125
17428SOL    HW154291   5.548   5.492   1.067
17428SOL    HW254292   5.458   5.382   1.119
17429SOL     OW54293   4.968   5.452   1.101
17429SOL    HW154294   5.056   5.480   1.072
17429SOL    HW254295   4.980   5.357   1.117
17430SOL     OW54296   3.819   4.979   1.030
17430SOL    HW154297   3.784   4.995   1.120
17430SOL    HW254298   3.750   4.925   0.990
17431SOL     OW54299   4.416   5.364   1.730
17431SOL    HW154300   4.391   5.457   1.728
17431SOL    HW254301   4.504   5.364   1.690
17432SOL     OW54302   4.637   3.842   0.142
17432SOL    HW154303   4.682   3.795   0.071
17432SOL    HW254304   4.673   3.795   0.219
17433SOL     OW54305   5.411   3.874   0.507
17433SOL    HW154306   5.486   3.853   0.449
17433SOL    HW254307   5.406   3.795   0.564
17434SOL     OW54308   5.081   5.292   0.496
17434SOL    HW154309   5.148   5.304   0.427
17434SOL    HW254310   5.048   5.382   0.508
17435SOL     OW54311   3.865   5.525   1.833
17435SOL    HW154312   3.824   5.453   1.884
17435SOL    HW254313   3.918   5.569   1.902
17436SOL     OW54314   4.976   4.649   0.658
17436SOL    HW154315   5.058   4.597   0.662
17436SOL    HW254316   5.008   4.728   0.611
17437SOL     OW54317   4.539   4.989   1.436
17437SOL    HW154318   4.504   5.035   1.515
17437SOL    HW254319   4.470   5.009   1.371
17438SOL     OW54320   4.414   5.347   0.172
17438SOL    HW154321   4.422   5.360   0.077
17438SOL    HW254322   4.344   5.277   0.177
17439SOL     OW54323   5.348   5.440   1.385
17439SOL    HW154324   5.393   5.455   1.300
17439SOL    HW254325   5.333   5.531   1.417
17440SOL     OW54326   5.568   3.888   0.976
17440SOL    HW154327   5.584   3.799   0.940
17440SOL    HW254328   5.483   3.914   0.933
17441SOL     OW54329   3.976   4.046   0.706
17441SOL    HW154330   3.893   4.092   0.684
17441SOL    HW254331   3.980   4.054   0.802
17442SOL     OW54332   4.931   5.325   0.030
17442SOL    HW154333   4.936   5.232   0.057
17442SOL    HW254334   4.864   5.323  11.060
17443SOL     OW54335   4.537   4.726   1.386
17443SOL    HW154336   4.567   4.732   1.295
17443SOL    HW254337   4.540   4.819   1.416
17444SOL     OW54338   4.631   4.630   0.269
17444SOL    HW154339   4.695   4.670   0.207
17444SOL    HW254340   4.681   4.554   0.305
17445SOL     OW54341   5.238   5.326   0.045
17445SOL    HW154342   5.142   5.334   0.034
17445SOL    HW254343   5.271   5.338  11.056
17446SOL     OW54344   4.056   5.003   1.490
17446SOL    HW154345   4.056   5.068   1.418
17446SOL    HW254346   3.977   4.950   1.473
17447SOL     OW54347   5.327   5.031   1.273
17447SOL    HW154348   5.370   5.008   1.356
17447SOL    HW254349   5.263   5.099   1.303
17448SOL     OW54350   4.775   4.838   0.720
17448SOL    HW154351   4.696   4.785   0.743
17448SOL    HW254352   4.836   4.770   0.687
17449SOL     OW54353   4.753   3.957   0.991
17449SOL    HW154354   4.736   3.914   0.905
17449SOL    HW254355   4.751   3.880   1.050
17450SOL     OW54356   4.341   5.214   0.488
17450SOL    HW154357   4.387   5.171   0.414
17450SOL    HW254358   4.263   5.253   0.445
17451SOL     OW54359   5.438   4.091   1.382
17451SOL    HW154360   5.497   4.169   1.378
17451SOL    HW254361   5.485   4.026   1.325
17452SOL     OW54362   3.973   5.091   0.267
17452SOL    HW154363   3.877   5.089   0.250
17452SOL    HW254364   3.975   5.122   0.360
17453SOL     OW54365   3.852   4.734   1.704
17453SOL    HW154366   3.781   4.717   1.769
17453SOL    HW254367   3.932   4.700   1.750
17454SOL     OW54368   4.400   3.898   1.491
17454SOL    HW154369   4.488   3.866   1.463
17454SOL    HW254370   4.421   3.942   1.576
17455SOL     OW54371   3.836   4.110   0.033
17455SOL    HW154372   3.765   4.053  11.099
17455SOL    HW254373   3.827   4.188  11.079
17456SOL     OW54374   5.174   4.578   1.386
17456SOL    HW154375   5.121   4.636   1.327
17456SOL    HW254376   5.264   4.610   1.367
17457SOL     OW54377   3.771   3.892   0.319
17457SOL    HW154378   3.778   3.973   0.268
17457SOL    HW254379   3.860   3.854   0.303
17458SOL     OW54380   4.910   5.073   0.126
17458SOL    HW154381   4.819   5.044   0.117
17458SOL    HW254382   4.929   5.057   0.220
17459SOL     OW54383   4.343   4.533   1.432
17459SOL    HW154384   4.398   4.613   1.428
17459SOL    HW254385   4.413   4.466   1.444
17460SOL     OW54386   5.228   5.511   0.967
17460SOL    HW154387   5.268   5.536   0.883
17460SOL    HW254388   5.305   5.489   1.020
17461SOL     OW54389   4.449   4.258   1.699
17461SOL    HW154390   4.491   4.322   1.758
17461SOL    HW254391   4.471   4.171   1.737
17462SOL     OW54392   5.182   4.904   1.631
17462SOL    HW154393   5.174   4.913   1.728
17462SOL    HW254394   5.277   4.924   1.617
17463SOL     OW54395   4.096   5.454   1.565
17463SOL    HW154396   4.010   5.497   1.548
17463SOL    HW254397   4.068   5.369   1.603
17464SOL     OW54398   5.430   4.606   1.244
17464SOL    HW154399   5.393   4.521   1.214
17464SOL    HW254400   5.392   4.670   1.180
17465SOL     OW54401   4.934   4.048   0.484
17465SOL    HW154402   4.999   3.977   0.469
17465SOL    HW254403   4.976   4.100   0.556
17466SOL     OW54404   4.308   4.471   0.681
17466SOL    HW154405   4.341   4.561   0.663
17466SOL    HW254406   4.250   4.454   0.605
17467SOL     OW54407   5.493   4.101   1.645
17467SOL    HW154408   5.463   4.107   1.553
17467SOL    HW254409   5.418   4.055   1.687
17468SOL     OW54410   5.468   4.659   1.503
17468SOL    HW154411   5.467   4.756   1.496
17468SOL    HW254412   5.477   4.632   1.409
17469SOL     OW54413   4.614   5.076   0.036
17469SOL    HW154414   4.554   5.078   0.112
17469SOL    HW254415   4.626   5.169   0.014
17470SOL     OW54416   4.367   5.521   0.897
17470SOL    HW154417   4.352   5.616   0.883
17470SOL    HW254418   4.458   5.518   0.928
17471SOL     OW54419   4.594   4.671   0.847
17471SOL    HW154420   4.645   4.601   0.891
17471SOL    HW254421   4.579   4.734   0.920
17472SOL     OW54422   4.773   4.711   0.062
17472SOL    HW154423   4.788   4.780  11.098
17472SOL    HW254424   4.858   4.664   0.063
17473SOL     OW54425   5.572   5.287   0.818
17473SOL    HW154426   5.477   5.274   0.815
17473SOL    HW254427   5.602   5.215   0.875
17474SOL     OW54428   3.949   5.035   1.859
17474SOL    HW154429   3.885   4.965   1.844
17474SOL    HW254430   3.938   5.050   1.955
17475SOL     OW54431   3.824   4.964   0.646
17475SOL    HW154432   3.831   4.927   0.734
17475SOL    HW254433   3.898   4.920   0.600
17476SOL     OW54434   4.389   5.123   1.608
17476SOL    HW154435   4.316   5.071   1.647
17476SOL    HW254436   4.379   5.209   1.654
17477SOL     OW54437   5.553   3.891   1.237
17477SOL    HW154438   5.549   3.795   1.239
17477SOL    HW254439   5.562   3.905   1.140
17478SOL     OW54440   4.155   4.141   0.509
17478SOL    HW154441   4.203   4.068   0.468
17478SOL    HW254442   4.107   4.099   0.582
17479SOL     OW54443   5.430   5.222   1.091
17479SOL    HW154444   5.348   5.193   1.048
17479SOL    HW254445   5.437   5.156   1.162
17480SOL     OW54446   4.043   4.265   1.283
17480SOL    HW154447   4.116   4.228   1.334
17480SOL    HW254448   4.061   4.235   1.192
17481SOL     OW54449   4.541   5.296   0.680
17481SOL    HW154450   4.532   5.286   0.585
17481SOL    HW254451   4.452   5.272   0.709
17482SOL     OW54452   5.155   3.955   1.094
17482SOL    HW154453   5.195   3.882   1.142
17482SOL    HW254454   5.110   4.005   1.165
17483SOL     OW54455   4.741   3.731   1.151
17483SOL    HW154456   4.684   3.656   1.129
17483SOL    HW254457   4.830   3.689   1.148
17484SOL     OW54458   4.500   5.060   0.311
17484SOL    HW154459   4.480   4.968   0.337
17484SOL    HW254460   4.585   5.074   0.355
17485SOL     OW54461   4.325   5.286   1.262
17485SOL    HW154462   4.330   5.366   1.318
17485SOL    HW254463   4.415   5.284   1.227
17486SOL     OW54464   5.053   3.758   0.172
17486SOL    HW154465   5.077   3.719   0.087
17486SOL    HW254466   4.964   3.721   0.187
17487SOL     OW54467   5.038   4.205   0.694
17487SOL    HW154468   4.974   4.279   0.697
17487SOL    HW254469   5.018   4.158   0.778
17488SOL     OW54470   5.325   3.929   0.862
17488SOL    HW154471   5.247   3.937   0.919
17488SOL    HW254472   5.321   4.009   0.807
17489SOL     OW54473   3.775   4.811   0.255
17489SOL    HW154474   3.870   4.814   0.275
17489SOL    HW254475   3.752   4.722   0.286
17490SOL     OW54476   4.621   5.366   0.359
17490SOL    HW154477   4.543   5.350   0.304
17490SOL    HW254478   4.594   5.446   0.410
17491SOL     OW54479   3.963   4.359   1.992
17491SOL    HW154480   3.872   4.343   2.020
17491SOL    HW254481   3.963   4.335   1.897
17492SOL     OW54482   3.964   4.000   2.857
17492SOL    HW154483   3.983   3.979   2.950
17492SOL    HW254484   3.874   3.961   2.847
17493SOL     OW54485   3.726   4.134   2.492
17493SOL    HW154486   3.642   4.156   2.537
17493SOL    HW254487   3.706   4.048   2.454
17494SOL     OW54488   4.290   5.014   3.061
17494SOL    HW154489   4.207   5.015   3.012
17494SOL    HW254490   4.301   5.108   3.083
17495SOL     OW54491   5.264   5.259   2.573
17495SOL    HW154492   5.220   5.231   2.656
17495SOL    HW254493   5.194   5.255   2.505
17496SOL     OW54494   4.854   4.404   2.572
17496SOL    HW154495   4.889   4.491   2.544
17496SOL    HW254496   4.813   4.426   2.656
17497SOL     OW54497   5.508   4.334   2.099
17497SOL    HW154498   5.483   4.328   2.004
17497SOL    HW254499   5.453   4.264   2.138
17498SOL     OW54500   4.494   4.895   2.918
17498SOL    HW154501   4.417   4.933   2.965
17498SOL    HW254502   4.511   4.965   2.852
17499SOL     OW54503   4.608   4.480   3.663
17499SOL    HW154504   4.596   4.542   3.735
17499SOL    HW254505   4.629   4.536   3.586
17500SOL     OW54506   4.414   4.735   2.495
17500SOL    HW154507   4.477   4.726   2.569
17500SOL    HW254508   4.340   4.784   2.537
17501SOL     OW54509   4.421   4.888   3.655
17501SOL    HW154510   4.442   4.955   3.588
17501SOL    HW254511   4.324   4.893   3.654
17502SOL     OW54512   4.046   5.156   2.948
17502SOL    HW154513   3.973   5.111   2.903
17502SOL    HW254514   4.093   5.202   2.876
17503SOL     OW54515   5.199   5.214   3.240
17503SOL    HW154516   5.249   5.298   3.246
17503SOL    HW254517   5.134   5.225   3.310
17504SOL     OW54518   4.144   4.120   3.400
17504SOL    HW154519   4.226   4.075   3.376
17504SOL    HW254520   4.075   4.059   3.369
17505SOL     OW54521   5.352   4.171   2.600
17505SOL    HW154522   5.283   4.202   2.540
17505SOL    HW254523   5.334   4.226   2.678
17506SOL     OW54524   3.945   5.449   2.331
17506SOL    HW154525   3.976   5.522   2.390
17506SOL    HW254526   4.015   5.448   2.264
17507SOL     OW54527   4.857   5.068   3.533
17507SOL    HW154528   4.923   5.047   3.600
17507SOL    HW254529   4.811   4.982   3.525
17508SOL     OW54530   3.956   5.155   2.383
17508SOL    HW154531   3.968   5.249   2.403
17508SOL    HW254532   3.900   5.125   2.456
17509SOL     OW54533   3.995   4.802   2.759
17509SOL    HW154534   3.993   4.732   2.826
17509SOL    HW254535   3.948   4.875   2.805
17510SOL     OW54536   4.326   5.517   3.275
17510SOL    HW154537   4.250   5.494   3.331
17510SOL    HW254538   4.342   5.611   3.298
17511SOL     OW54539   4.287   4.717   1.976
17511SOL    HW154540   4.339   4.765   1.909
17511SOL    HW254541   4.330   4.748   2.058
17512SOL     OW54542   5.332   3.833   3.353
17512SOL    HW154543   5.333   3.909   3.294
17512SOL    HW254544   5.338   3.877   3.440
17513SOL     OW54545   3.849   4.380   2.426
17513SOL    HW154546   3.813   4.291   2.443
17513SOL    HW254547   3.842   4.422   2.515
17514SOL     OW54548   5.571   5.470   2.199
17514SOL    HW154549   5.642   5.452   2.264
17514SOL    HW254550   5.587   5.564   2.179
17515SOL     OW54551   3.745   5.316   1.970
17515SOL    HW154552   3.746   5.225   2.002
17515SOL    HW254553   3.736   5.366   2.053
17516SOL     OW54554   5.410   4.626   2.503
17516SOL    HW154555   5.492   4.601   2.458
17516SOL    HW254556   5.369   4.683   2.436
17517SOL     OW54557   5.364   4.846   2.307
17517SOL    HW154558   5.453   4.847   2.269
17517SOL    HW254559   5.371   4.915   2.376
17518SOL     OW54560   3.840   4.461   3.441
17518SOL    HW154561   3.929   4.494   3.460
17518SOL    HW254562   3.785   4.535   3.468
17519SOL     OW54563   4.282   5.117   2.635
17519SOL    HW154564   4.257   5.023   2.629
17519SOL    HW254565   4.316   5.132   2.545
17520SOL     OW54566   5.019   4.954   3.287
17520SOL    HW154567   5.042   4.884   3.224
17520SOL    HW254568   5.084   4.940   3.359
17521SOL     OW54569   4.558   3.721   2.362
17521SOL    HW154570   4.586   3.815   2.353
17521SOL    HW254571   4.462   3.729   2.374
17522SOL     OW54572   3.893   4.688   3.133
17522SOL    HW154573   3.987   4.668   3.119
17522SOL    HW254574   3.848   4.618   3.083
17523SOL     OW54575   5.270   4.687   2.048
17523SOL    HW154576   5.187   4.644   2.078
17523SOL    HW254577   5.304   4.724   2.131
17524SOL     OW54578   4.896   5.526   3.471
17524SOL    HW154579   4.906   5.593   3.401
17524SOL    HW254580   4.924   5.446   3.423
17525SOL     OW54581   4.062   3.959   3.668
17525SOL    HW154582   4.118   4.038   3.663
17525SOL    HW254583   3.981   3.996   3.707
17526SOL     OW54584   5.187   5.156   2.821
17526SOL    HW154585   5.128   5.176   2.895
17526SOL    HW254586   5.158   5.066   2.795
17527SOL     OW54587   5.380   5.465   2.460
17527SOL    HW154588   5.366   5.425   2.373
17527SOL    HW254589   5.350   5.392   2.518
17528SOL     OW54590   4.312   4.434   2.121
17528SOL    HW154591   4.314   4.526   2.092
17528SOL    HW254592   4.240   4.434   2.188
17529SOL     OW54593   4.988   4.058   2.773
17529SOL    HW154594   4.899   4.030   2.802
17529SOL    HW254595   5.046   4.017   2.840
17530SOL     OW54596   5.298   5.374   2.164
17530SOL    HW154597   5.390   5.400   2.171
17530SOL    HW254598   5.290   5.364   2.067
17531SOL     OW54599   4.533   4.343   3.330
17531SOL    HW154600   4.511   4.308   3.419
17531SOL    HW254601   4.482   4.284   3.271
17532SOL     OW54602   5.122   4.202   3.542
17532SOL    HW154603   5.135   4.252   3.626
17532SOL    HW254604   5.181   4.126   3.557
17533SOL     OW54605   4.696   4.617   3.447
17533SOL    HW154606   4.745   4.539   3.413
17533SOL    HW254607   4.650   4.646   3.366
17534SOL     OW54608   4.702   4.130   3.090
17534SOL    HW154609   4.611   4.155   3.114
17534SOL    HW254610   4.690   4.079   3.009
17535SOL     OW54611   4.770   4.401   2.272
17535SOL    HW154612   4.777   4.425   2.366
17535SOL    HW254613   4.681   4.359   2.269
17536SOL     OW54614   3.832   4.528   2.654
17536SOL    HW154615   3.903   4.537   2.720
17536SOL    HW254616   3.786   4.612   2.661
17537SOL     OW54617   3.836   5.573   3.429
17537SOL    HW154618   3.848   5.552   3.524
17537SOL    HW254619   3.742   5.557   3.417
17538SOL     OW54620   4.604   4.094   2.072
17538SOL    HW154621   4.644   4.148   2.002
17538SOL    HW254622   4.619   4.006   2.037
17539SOL     OW54623   5.447   4.306   3.713
17539SOL    HW154624   5.410   4.385   3.670
17539SOL    HW254625   5.484   4.259   3.638
17540SOL     OW54626   5.081   4.868   2.424
17540SOL    HW154627   5.162   4.863   2.372
17540SOL    HW254628   5.031   4.935   2.375
17541SOL     OW54629   4.277   3.932   2.758
17541SOL    HW154630   4.283   3.943   2.855
17541SOL    HW254631   4.262   4.022   2.727
17542SOL     OW54632   4.727   5.174   2.356
17542SOL    HW154633   4.706   5.243   2.291
17542SOL    HW254634   4.686   5.213   2.436
17543SOL     OW54635   4.069   5.536   2.717
17543SOL    HW154636   4.111   5.448   2.731
17543SOL    HW254637   4.142   5.596   2.738
17544SOL     OW54638   5.549   4.770   2.732
17544SOL    HW154639   5.492   4.754   2.655
17544SOL    HW254640   5.490   4.750   2.806
17545SOL     OW54641   4.947   5.285   3.362
17545SOL    HW154642   4.930   5.212   3.423
17545SOL    HW254643   4.908   5.250   3.280
17546SOL     OW54644   4.025   4.683   2.112
17546SOL    HW154645   4.107   4.706   2.068
17546SOL    HW254646   3.995   4.607   2.061
17547SOL     OW54647   5.201   4.474   2.576
17547SOL    HW154648   5.198   4.448   2.669
17547SOL    HW254649   5.283   4.526   2.572
17548SOL     OW54650   4.178   5.001   3.585
17548SOL    HW154651   4.136   4.998   3.496
17548SOL    HW254652   4.097   5.007   3.641
17549SOL     OW54653   4.821   5.516   2.104
17549SOL    HW154654   4.753   5.462   2.147
17549SOL    HW254655   4.838   5.466   2.022
17550SOL     OW54656   3.892   4.012   3.360
17550SOL    HW154657   3.821   4.071   3.391
17550SOL    HW254658   3.873   3.929   3.406
17551SOL     OW54659   5.348   5.086   1.954
17551SOL    HW154660   5.313   5.171   1.925
17551SOL    HW254661   5.282   5.022   1.920
17552SOL     OW54662   4.179   5.465   2.177
17552SOL    HW154663   4.232   5.510   2.245
17552SOL    HW254664   4.247   5.415   2.127
17553SOL     OW54665   5.123   3.843   2.310
17553SOL    HW154666   5.114   3.798   2.224
17553SOL    HW254667   5.219   3.854   2.318
17554SOL     OW54668   3.976   5.519   3.096
17554SOL    HW154669   4.028   5.448   3.136
17554SOL    HW254670   3.967   5.487   3.005
17555SOL     OW54671   4.696   5.450   2.778
17555SOL    HW154672   4.776   5.396   2.783
17555SOL    HW254673   4.645   5.401   2.709
17556SOL     OW54674   4.122   4.407   2.321
17556SOL    HW154675   4.138   4.314   2.347
17556SOL    HW254676   4.029   4.417   2.346
17557SOL     OW54677   5.264   3.973   3.586
17557SOL    HW154678   5.268   3.984   3.685
17557SOL    HW254679   5.212   3.892   3.578
17558SOL     OW54680   4.360   3.854   1.951
17558SOL    HW154681   4.426   3.790   1.981
17558SOL    HW254682   4.310   3.803   1.884
17559SOL     OW54683   4.490   3.974   3.595
17559SOL    HW154684   4.574   3.926   3.610
17559SOL    HW254685   4.445   3.966   3.680
17560SOL     OW54686   4.606   5.261   3.057
17560SOL    HW154687   4.598   5.242   2.963
17560SOL    HW254688   4.677   5.202   3.087
17561SOL     OW54689   5.057   4.309   3.290
17561SOL    HW154690   5.092   4.278   3.376
17561SOL    HW254691   5.108   4.391   3.274
17562SOL     OW54692   4.539   5.135   2.794
17562SOL    HW154693   4.626   5.126   2.751
17562SOL    HW254694   4.487   5.174   2.721
17563SOL     OW54695   4.663   4.256   2.771
17563SOL    HW154696   4.639   4.242   2.677
17563SOL    HW254697   4.694   4.167   2.794
17564SOL     OW54698   4.286   3.759   2.365
17564SOL    HW154699   4.207   3.771   2.421
17564SOL    HW254700   4.280   3.839   2.309
17565SOL     OW54701   5.165   4.901   1.894
17565SOL    HW154702   5.192   4.825   1.949
17565SOL    HW254703   5.079   4.926   1.930
17566SOL     OW54704   4.003   3.774   2.059
17566SOL    HW154705   4.063   3.844   2.029
17566SOL    HW254706   4.066   3.710   2.098
17567SOL     OW54707   4.652   3.975   2.348
17567SOL    HW154708   4.634   4.023   2.266
17567SOL    HW254709   4.748   3.991   2.358
17568SOL     OW54710   4.810   4.406   3.326
17568SOL    HW154711   4.754   4.327   3.330
17568SOL    HW254712   4.901   4.370   3.316
17569SOL     OW54713   4.948   5.302   2.668
17569SOL    HW154714   4.944   5.349   2.583
17569SOL    HW254715   5.031   5.334   2.705
17570SOL     OW54716   4.201   4.864   2.595
17570SOL    HW154717   4.125   4.841   2.652
17570SOL    HW254718   4.159   4.857   2.506
17571SOL     OW54719   4.986   5.532   2.456
17571SOL    HW154720   5.037   5.603   2.413
17571SOL    HW254721   4.932   5.581   2.519
17572SOL     OW54722   4.777   4.252   1.891
17572SOL    HW154723   4.732   4.336   1.870
17572SOL    HW254724   4.846   4.277   1.955
17573SOL     OW54725   3.774   4.282   3.250
17573SOL    HW154726   3.869   4.274   3.232
17573SOL    HW254727   3.773   4.359   3.311
17574SOL     OW54728   4.290   3.954   3.028
17574SOL    HW154729   4.337   3.886   3.077
17574SOL    HW254730   4.199   3.943   3.060
17575SOL     OW54731   4.607   4.185   2.524
17575SOL    HW154732   4.556   4.235   2.459
17575SOL    HW254733   4.620   4.099   2.481
17576SOL     OW54734   4.706   3.814   2.640
17576SOL    HW154735   4.685   3.784   2.551
17576SOL    HW254736   4.702   3.731   2.691
17577SOL     OW54737   5.136   4.905   2.745
17577SOL    HW154738   5.084   4.828   2.772
17577SOL    HW254739   5.127   4.901   2.648
17578SOL     OW54740   5.212   4.295   2.833
17578SOL    HW154741   5.156   4.218   2.851
17578SOL    HW254742   5.271   4.298   2.910
17579SOL     OW54743   5.573   4.548   2.254
17579SOL    HW154744   5.625   4.493   2.316
17579SOL    HW254745   5.557   4.485   2.183
17580SOL     OW54746   4.217   5.141   1.977
17580SOL    HW154747   4.140   5.131   2.036
17580SOL    HW254748   4.203   5.071   1.912
17581SOL     OW54749   5.398   5.025   2.512
17581SOL    HW154750   5.495   5.034   2.517
17581SOL    HW254751   5.365   5.110   2.543
17582SOL     OW54752   5.131   4.319   1.928
17582SOL    HW154753   5.083   4.290   2.008
17582SOL    HW254754   5.222   4.295   1.949
17583SOL     OW54755   4.248   3.956   2.178
17583SOL    HW154756   4.291   3.928   2.095
17583SOL    HW254757   4.217   4.045   2.152
17584SOL     OW54758   5.460   4.955   3.449
17584SOL    HW154759   5.546   4.912   3.458
17584SOL    HW254760   5.485   5.048   3.461
17585SOL     OW54761   4.794   5.103   3.219
17585SOL    HW154762   4.717   5.053   3.252
17585SOL    HW254763   4.868   5.043   3.240
17586SOL     OW54764   5.329   5.326   3.493
17586SOL    HW154765   5.341   5.366   3.406
17586SOL    HW254766   5.413   5.277   3.504
17587SOL     OW54767   4.855   4.961   2.964
17587SOL    HW154768   4.763   4.966   2.988
17587SOL    HW254769   4.852   4.990   2.871
17588SOL     OW54770   5.321   4.814   2.934
17588SOL    HW154771   5.333   4.879   3.007
17588SOL    HW254772   5.270   4.867   2.871
17589SOL     OW54773   4.644   3.828   3.267
17589SOL    HW154774   4.670   3.806   3.176
17589SOL    HW254775   4.724   3.872   3.301
17590SOL     OW54776   4.702   4.840   3.601
17590SOL    HW154777   4.610   4.829   3.631
17590SOL    HW254778   4.712   4.765   3.539
17591SOL     OW54779   4.427   4.782   2.200
17591SOL    HW154780   4.417   4.762   2.294
17591SOL    HW254781   4.506   4.728   2.176
17592SOL     OW54782   4.150   4.537   3.131
17592SOL    HW154783   4.223   4.536   3.196
17592SOL    HW254784   4.107   4.451   3.148
17593SOL     OW54785   5.004   4.108   3.117
17593SOL    HW154786   5.022   4.185   3.176
17593SOL    HW254787   4.912   4.125   3.090
17594SOL     OW54788   3.808   5.286   3.215
17594SOL    HW154789   3.806   5.375   3.177
17594SOL    HW254790   3.904   5.266   3.214
17595SOL     OW54791   4.084   4.836   2.358
17595SOL    HW154792   4.124   4.902   2.300
17595SOL    HW254793   4.068   4.761   2.298
17596SOL     OW54794   4.264   4.264   2.714
17596SOL    HW154795   4.299   4.322   2.644
17596SOL    HW254796   4.324   4.283   2.788
17597SOL     OW54797   4.954   5.067   2.253
17597SOL    HW154798   5.001   5.144   2.290
17597SOL    HW254799   4.864   5.084   2.285
17598SOL     OW54800   5.022   5.194   3.031
17598SOL    HW154801   5.083   5.182   3.107
17598SOL    HW254802   4.962   5.118   3.039
17599SOL     OW54803   5.312   4.335   2.338
17599SOL    HW154804   5.262   4.388   2.403
17599SOL    HW254805   5.339   4.403   2.275
17600SOL     OW54806   4.069   5.232   3.195
17600SOL    HW154807   4.056   5.199   3.103
17600SOL    HW254808   4.164   5.252   3.192
17601SOL     OW54809   4.161   4.442   3.483
17601SOL    HW154810   4.218   4.489   3.420
17601SOL    HW254811   4.193   4.352   3.478
17602SOL     OW54812   5.341   4.496   3.546
17602SOL    HW154813   5.254   4.538   3.544
17602SOL    HW254814   5.385   4.538   3.468
17603SOL     OW54815   4.723   3.841   3.640
17603SOL    HW154816   4.779   3.916   3.613
17603SOL    HW254817   4.764   3.770   3.587
17604SOL     OW54818   4.218   3.742   3.617
17604SOL    HW154819   4.171   3.690   3.549
17604SOL    HW254820   4.158   3.818   3.629
17605SOL     OW54821   4.292   4.601   2.905
17605SOL    HW154822   4.331   4.690   2.909
17605SOL    HW254823   4.245   4.592   2.990
17606SOL     OW54824   5.085   4.577   2.876
17606SOL    HW154825   4.997   4.545   2.852
17606SOL    HW254826   5.133   4.494   2.893
17607SOL     OW54827   4.951   4.243   2.129
17607SOL    HW154828   4.952   4.169   2.193
17607SOL    HW254829   4.891   4.305   2.174
17608SOL     OW54830   4.025   3.925   3.113
17608SOL    HW154831   3.969   3.952   3.189
17608SOL    HW254832   4.002   3.830   3.106
17609SOL     OW54833   3.759   5.025   3.138
17609SOL    HW154834   3.782   4.964   3.211
17609SOL    HW254835   3.764   5.112   3.180
17610SOL     OW54836   4.446   4.369   2.919
17610SOL    HW154837   4.521   4.354   2.859
17610SOL    HW254838   4.413   4.459   2.896
17611SOL     OW54839   5.469   4.676   3.715
17611SOL    HW154840   5.412   4.617   3.664
17611SOL    HW254841   5.427   4.675   3.802
17612SOL     OW54842   4.038   3.785   2.472
17612SOL    HW154843   4.003   3.874   2.494
17612SOL    HW254844   4.037   3.742   2.559
17613SOL     OW54845   5.323   4.101   2.210
17613SOL    HW154846   5.356   4.033   2.270
17613SOL    HW254847   5.314   4.179   2.269
17614SOL     OW54848   4.782   4.489   2.835
17614SOL    HW154849   4.761   4.505   2.929
17614SOL    HW254850   4.749   4.398   2.824
17615SOL     OW54851   4.697   5.274   3.566
17615SOL    HW154852   4.689   5.335   3.490
17615SOL    HW254853   4.753   5.203   3.528
17616SOL     OW54854   5.573   5.218   3.463
17616SOL    HW154855   5.599   5.244   3.374
17616SOL    HW254856   5.653   5.239   3.515
17617SOL     OW54857   4.081   4.625   3.655
17617SOL    HW154858   4.160   4.637   3.709
17617SOL    HW254859   4.102   4.546   3.602
17618SOL     OW54860   5.230   3.971   1.990
17618SOL    HW154861   5.154   3.924   2.028
17618SOL    HW254862   5.271   4.014   2.068
17619SOL     OW54863   5.006   4.559   1.882
17619SOL    HW154864   5.056   4.477   1.896
17619SOL    HW254865   5.039   4.586   1.793
17620SOL     OW54866   4.791   5.083   2.715
17620SOL    HW154867   4.798   5.013   2.646
17620SOL    HW254868   4.853   5.152   2.685
17621SOL     OW54869   4.014   4.538   2.862
17621SOL    HW154870   4.110   4.551   2.847
17621SOL    HW254871   4.010   4.443   2.879
17622SOL     OW54872   4.042   4.264   2.860
17622SOL    HW154873   4.017   4.170   2.848
17622SOL    HW254874   4.110   4.274   2.790
17623SOL     OW54875   4.877   4.087   3.560
17623SOL    HW154876   4.831   4.146   3.623
17623SOL    HW254877   4.965   4.131   3.556
17624SOL     OW54878   4.889   3.929   3.341
17624SOL    HW154879   4.888   3.995   3.413
17624SOL    HW254880   4.933   3.977   3.270
17625SOL     OW54881   3.722   5.043   2.049
17625SOL    HW154882   3.630   5.054   2.016
17625SOL    HW254883   3.720   4.954   2.088
17626SOL     OW54884   3.823   5.512   2.808
17626SOL    HW154885   3.794   5.437   2.753
17626SOL    HW254886   3.915   5.525   2.777
17627SOL     OW54887   4.198   5.315   2.787
17627SOL    HW154888   4.277   5.365   2.813
17627SOL    HW254889   4.236   5.245   2.728
17628SOL     OW54890   4.702   4.508   3.095
17628SOL    HW154891   4.755   4.474   3.170
17628SOL    HW254892   4.615   4.473   3.115
17629SOL     OW54893   3.748   4.247   2.970
17629SOL    HW154894   3.828   4.239   2.917
17629SOL    HW254895   3.783   4.264   3.059
17630SOL     OW54896   3.942   4.234   3.580
17630SOL    HW154897   4.002   4.195   3.515
17630SOL    HW254898   3.896   4.303   3.529
17631SOL     OW54899   5.111   4.652   3.510
17631SOL    HW154900   5.149   4.742   3.513
17631SOL    HW254901   5.116   4.631   3.415
17632SOL     OW54902   4.525   4.308   2.233
17632SOL    HW154903   4.535   4.235   2.169
17632SOL    HW254904   4.448   4.356   2.199
17633SOL     OW54905   5.362   4.340   3.060
17633SOL    HW154906   5.340   4.277   3.130
17633SOL    HW254907   5.448   4.306   3.029
17634SOL     OW54908   3.976   5.267   3.580
17634SOL    HW154909   3.957   5.332   3.650
17634SOL    HW254910   3.980   5.184   3.632
17635SOL     OW54911   4.414   4.201   3.128
17635SOL    HW154912   4.368   4.124   3.090
17635SOL    HW254913   4.413   4.265   3.055
17636SOL     OW54914   4.646   5.417   3.343
17636SOL    HW154915   4.639   5.384   3.252
17636SOL    HW254916   4.650   5.513   3.330
17637SOL     OW54917   4.168   4.192   2.065
17637SOL    HW154918   4.235   4.262   2.064
17637SOL    HW254919   4.086   4.244   2.057
17638SOL     OW54920   3.831   4.853   3.327
17638SOL    HW154921   3.844   4.800   3.408
17638SOL    HW254922   3.849   4.787   3.256
17639SOL     OW54923   5.043   4.765   3.090
17639SOL    HW154924   5.065   4.710   3.013
17639SOL    HW254925   4.980   4.828   3.052
17640SOL     OW54926   5.032   4.579   2.153
17640SOL    HW154927   4.950   4.551   2.197
17640SOL    HW254928   5.008   4.578   2.059
17641SOL     OW54929   5.473   5.472   2.988
17641SOL    HW154930   5.549   5.496   2.930
17641SOL    HW254931   5.466   5.376   2.972
17642SOL     OW54932   4.969   5.460   2.989
17642SOL    HW154933   5.057   5.479   2.956
17642SOL    HW254934   4.970   5.363   2.994
17643SOL     OW54935   3.837   4.981   2.888
17643SOL    HW154936   3.803   4.997   2.979
17643SOL    HW254937   3.764   4.930   2.849
17644SOL     OW54938   4.420   5.380   3.596
17644SOL    HW154939   4.358   5.455   3.590
17644SOL    HW254940   4.488   5.406   3.532
17645SOL     OW54941   5.405   3.870   2.357
17645SOL    HW154942   5.479   3.854   2.296
17645SOL    HW254943   5.403   3.787   2.409
17646SOL     OW54944   5.098   5.303   2.351
17646SOL    HW154945   5.151   5.322   2.271
17646SOL    HW254946   5.050   5.387   2.365
17647SOL     OW54947   3.878   5.520   3.691
17647SOL    HW154948   3.834   5.449   3.742
17647SOL    HW254949   3.921   5.570   3.764
17648SOL     OW54950   4.977   4.635   2.520
17648SOL    HW154951   5.060   4.586   2.537
17648SOL    HW254952   5.012   4.718   2.482
17649SOL     OW54953   4.537   4.984   3.312
17649SOL    HW154954   4.509   5.041   3.385
17649SOL    HW254955   4.479   5.013   3.240
17650SOL     OW54956   4.392   5.338   2.028
17650SOL    HW154957   4.408   5.351   1.934
17650SOL    HW254958   4.338   5.256   2.026
17651SOL     OW54959   5.345   5.436   3.240
17651SOL    HW154960   5.393   5.450   3.157
17651SOL    HW254961   5.334   5.528   3.273
17652SOL     OW54962   5.566   3.890   2.835
17652SOL    HW154963   5.589   3.803   2.798
17652SOL    HW254964   5.479   3.910   2.795
17653SOL     OW54965   3.973   4.034   2.562
17653SOL    HW154966   3.890   4.082   2.549
17653SOL    HW254967   3.988   4.040   2.657
17654SOL     OW54968   4.899   5.364   1.889
17654SOL    HW154969   4.905   5.269   1.908
17654SOL    HW254970   4.843   5.368   1.810
17655SOL     OW54971   4.544   4.725   3.242
17655SOL    HW154972   4.577   4.732   3.152
17655SOL    HW254973   4.543   4.818   3.272
17656SOL     OW54974   4.630   4.633   2.129
17656SOL    HW154975   4.705   4.675   2.082
17656SOL    HW254976   4.672   4.557   2.172
17657SOL     OW54977   5.283   5.353   1.892
17657SOL    HW154978   5.188   5.365   1.887
17657SOL    HW254979   5.308   5.353   1.797
17658SOL     OW54980   4.062   4.998   3.352
17658SOL    HW154981   4.053   5.072   3.289
17658SOL    HW254982   3.981   4.946   3.337
17659SOL     OW54983   5.329   5.025   3.119
17659SOL    HW154984   5.395   5.002   3.186
17659SOL    HW254985   5.276   5.093   3.165
17660SOL     OW54986   4.782   4.834   2.584
17660SOL    HW154987   4.704   4.786   2.618
17660SOL    HW254988   4.837   4.762   2.551
17661SOL     OW54989   4.751   3.963   2.857
17661SOL    HW154990   4.730   3.923   2.770
17661SOL    HW254991   4.751   3.883   2.914
17662SOL     OW54992   4.303   5.141   2.349
17662SOL    HW154993   4.382   5.150   2.295
17662SOL    HW254994   4.267   5.230   2.347
17663SOL     OW54995   5.431   4.094   3.240
17663SOL    HW154996   5.496   4.167   3.243
17663SOL    HW254997   5.478   4.028   3.184
17664SOL     OW54998   3.972   5.109   2.128
17664SOL    HW154999   3.876   5.089   2.126
17664SOL    HW255000   3.983   5.126   2.225
17665SOL     OW55001   3.853   4.737   3.568
17665SOL    HW155002   3.782   4.718   3.632
17665SOL    HW255003   3.933   4.701   3.612
17666SOL     OW55004   4.395   3.913   3.347
17666SOL    HW155005   4.483   3.882   3.316
17666SOL    HW255006   4.417   3.945   3.436
17667SOL     OW55007   3.830   4.064   1.877
17667SOL    HW155008   3.734   4.071   1.873
17667SOL    HW255009   3.857   4.138   1.821
17668SOL     OW55010   5.173   4.578   3.252
17668SOL    HW155011   5.134   4.642   3.190
17668SOL    HW255012   5.266   4.605   3.253
17669SOL     OW55013   3.776   3.890   2.171
17669SOL    HW155014   3.766   3.975   2.124
17669SOL    HW255015   3.861   3.857   2.134
17670SOL     OW55016   4.928   5.080   1.974
17670SOL    HW155017   4.844   5.032   1.981
17670SOL    HW255018   4.954   5.087   2.068
17671SOL     OW55019   4.352   4.534   3.296
17671SOL    HW155020   4.406   4.614   3.288
17671SOL    HW255021   4.423   4.467   3.306
17672SOL     OW55022   5.228   5.491   2.825
17672SOL    HW155023   5.261   5.534   2.745
17672SOL    HW255024   5.309   5.478   2.877
17673SOL     OW55025   4.457   4.265   3.570
17673SOL    HW155026   4.492   4.333   3.631
17673SOL    HW255027   4.479   4.181   3.612
17674SOL     OW55028   5.201   4.903   3.485
17674SOL    HW155029   5.191   4.905   3.583
17674SOL    HW255030   5.296   4.925   3.475
17675SOL     OW55031   4.093   5.460   3.432
17675SOL    HW155032   4.009   5.504   3.409
17675SOL    HW255033   4.060   5.376   3.470
17676SOL     OW55034   5.437   4.597   3.073
17676SOL    HW155035   5.399   4.509   3.057
17676SOL    HW255036   5.385   4.657   3.016
17677SOL     OW55037   4.927   4.047   2.336
17677SOL    HW155038   4.995   3.978   2.326
17677SOL    HW255039   4.966   4.101   2.408
17678SOL     OW55040   4.333   4.455   2.515
17678SOL    HW155041   4.363   4.546   2.501
17678SOL    HW255042   4.263   4.448   2.449
17679SOL     OW55043   5.487   4.097   3.500
17679SOL    HW155044   5.455   4.105   3.408
17679SOL    HW255045   5.413   4.052   3.542
17680SOL     OW55046   5.440   4.652   3.342
17680SOL    HW155047   5.463   4.745   3.357
17680SOL    HW255048   5.468   4.637   3.250
17681SOL     OW55049   4.577   5.085   1.894
17681SOL    HW155050   4.561   5.099   1.989
17681SOL    HW255051   4.601   5.173   1.861
17682SOL     OW55052   4.385   5.520   2.828
17682SOL    HW155053   4.372   5.608   2.787
17682SOL    HW255054   4.464   5.487   2.783
17683SOL     OW55055   4.598   4.676   2.706
17683SOL    HW155056   4.648   4.603   2.747
17683SOL    HW255057   4.585   4.737   2.780
17684SOL     OW55058   4.821   4.728   1.965
17684SOL    HW155059   4.792   4.777   1.886
17684SOL    HW255060   4.882   4.663   1.924
17685SOL     OW55061   5.584   5.287   2.695
17685SOL    HW155062   5.488   5.284   2.683
17685SOL    HW255063   5.599   5.216   2.759
17686SOL     OW55064   3.959   5.045   3.727
17686SOL    HW155065   3.888   4.987   3.698
17686SOL    HW255066   3.940   5.052   3.822
17687SOL     OW55067   3.809   4.972   2.527
17687SOL    HW155068   3.824   4.919   2.606
17687SOL    HW255069   3.877   4.936   2.467
17688SOL     OW55070   4.411   5.123   3.517
17688SOL    HW155071   4.322   5.082   3.521
17688SOL    HW255072   4.389   5.217   3.533
17689SOL     OW55073   5.543   3.896   3.096
17689SOL    HW155074   5.558   3.802   3.105
17689SOL    HW255075   5.556   3.907   2.999
17690SOL     OW55076   4.170   4.149   2.400
17690SOL    HW155077   4.202   4.076   2.345
17690SOL    HW255078   4.115   4.105   2.467
17691SOL     OW55079   5.437   5.212   2.939
17691SOL    HW155080   5.354   5.185   2.897
17691SOL    HW255081   5.438   5.153   3.016
17692SOL     OW55082   4.044   4.268   3.141
17692SOL    HW155083   4.111   4.218   3.189
17692SOL    HW255084   4.062   4.247   3.048
17693SOL     OW55085   5.165   3.970   2.958
17693SOL    HW155086   5.208   3.900   3.007
17693SOL    HW255087   5.113   4.015   3.027
17694SOL     OW55088   4.738   3.727   3.019
17694SOL    HW155089   4.684   3.653   2.987
17694SOL    HW255090   4.828   3.688   3.015
17695SOL     OW55091   4.527   5.058   2.168
17695SOL    HW155092   4.486   4.971   2.176
17695SOL    HW255093   4.583   5.063   2.247
17696SOL     OW55094   4.329   5.280   3.140
17696SOL    HW155095   4.331   5.367   3.182
17696SOL    HW255096   4.419   5.277   3.103
17697SOL     OW55097   5.038   3.750   2.060
17697SOL    HW155098   5.050   3.704   1.976
17697SOL    HW255099   4.950   3.716   2.088
17698SOL     OW55100   5.027   4.197   2.545
17698SOL    HW155101   4.965   4.272   2.541
17698SOL    HW255102   5.006   4.157   2.631
17699SOL     OW55103   5.323   3.927   2.726
17699SOL    HW155104   5.252   3.946   2.790
17699SOL    HW255105   5.327   4.010   2.675
17700SOL     OW55106   3.763   4.794   2.169
17700SOL    HW155107   3.859   4.789   2.157
17700SOL    HW255108   3.744   4.701   2.194
17701SOL     OW55109   4.619   5.370   2.190
17701SOL    HW155110   4.537   5.350   2.141
17701SOL    HW255111   4.591   5.440   2.252
17702SOL     OW55112   3.957   4.364   3.851
17702SOL    HW155113   3.865   4.346   3.879
17702SOL    HW255114   3.960   4.334   3.759
17703SOL     OW55115   3.934   4.025   4.723
17703SOL    HW155116   3.971   3.993   4.808
17703SOL    HW255117   3.859   3.965   4.709
17704SOL     OW55118   3.728   4.135   4.348
17704SOL    HW155119   3.645   4.153   4.397
17704SOL    HW255120   3.707   4.051   4.307
17705SOL     OW55121   4.280   4.972   4.865
17705SOL    HW155122   4.191   4.977   4.902
17705SOL    HW255123   4.332   5.024   4.927
17706SOL     OW55124   5.262   5.269   4.415
17706SOL    HW155125   5.236   5.232   4.502
17706SOL    HW255126   5.195   5.236   4.353
17707SOL     OW55127   4.853   4.414   4.417
17707SOL    HW155128   4.892   4.502   4.404
17707SOL    HW255129   4.814   4.423   4.505
17708SOL     OW55130   5.506   4.349   3.974
17708SOL    HW155131   5.469   4.312   3.892
17708SOL    HW255132   5.467   4.297   4.046
17709SOL     OW55133   4.481   4.861   4.726
17709SOL    HW155134   4.405   4.895   4.777
17709SOL    HW255135   4.526   4.944   4.705
17710SOL     OW55136   4.588   4.491   5.522
17710SOL    HW155137   4.580   4.561   5.589
17710SOL    HW255138   4.620   4.542   5.445
17711SOL     OW55139   4.407   4.750   4.371
17711SOL    HW155140   4.475   4.729   4.439
17711SOL    HW255141   4.339   4.796   4.423
17712SOL     OW55142   4.037   5.169   4.788
17712SOL    HW155143   3.971   5.110   4.748
17712SOL    HW255144   4.087   5.205   4.713
17713SOL     OW55145   4.151   4.120   5.254
17713SOL    HW155146   4.237   4.080   5.238
17713SOL    HW255147   4.089   4.049   5.232
17714SOL     OW55148   3.943   5.438   4.206
17714SOL    HW155149   3.969   5.518   4.258
17714SOL    HW255150   4.003   5.443   4.131
17715SOL     OW55151   3.970   5.157   4.259
17715SOL    HW155152   3.963   5.253   4.269
17715SOL    HW255153   3.901   5.125   4.318
17716SOL     OW55154   3.985   4.797   4.605
17716SOL    HW155155   4.001   4.726   4.669
17716SOL    HW255156   3.944   4.865   4.661
17717SOL     OW55157   4.345   5.546   5.123
17717SOL    HW155158   4.298   5.529   5.206
17717SOL    HW255159   4.404   5.619   5.147
17718SOL     OW55160   4.304   4.715   3.848
17718SOL    HW155161   4.358   4.764   3.784
17718SOL    HW255162   4.341   4.748   3.933
17719SOL     OW55163   3.838   4.385   4.293
17719SOL    HW155164   3.808   4.293   4.304
17719SOL    HW255165   3.833   4.421   4.384
17720SOL     OW55166   5.575   5.469   4.068
17720SOL    HW155167   5.601   5.455   4.160
17720SOL    HW255168   5.617   5.555   4.049
17721SOL     OW55169   3.783   5.319   3.838
17721SOL    HW155170   3.766   5.226   3.860
17721SOL    HW255171   3.752   5.363   3.919
17722SOL     OW55172   5.394   4.657   4.392
17722SOL    HW155173   5.459   4.584   4.403
17722SOL    HW255174   5.412   4.685   4.301
17723SOL     OW55175   5.378   4.861   4.174
17723SOL    HW155176   5.468   4.852   4.139
17723SOL    HW255177   5.393   4.923   4.249
17724SOL     OW55178   3.853   4.477   5.304
17724SOL    HW155179   3.949   4.492   5.294
17724SOL    HW255180   3.826   4.562   5.345
17725SOL     OW55181   4.325   5.125   4.500
17725SOL    HW155182   4.284   5.037   4.513
17725SOL    HW255183   4.321   5.132   4.403
17726SOL     OW55184   5.039   4.899   5.160
17726SOL    HW155185   5.045   4.857   5.072
17726SOL    HW255186   5.134   4.898   5.188
17727SOL     OW55187   4.571   3.710   4.206
17727SOL    HW155188   4.602   3.803   4.207
17727SOL    HW255189   4.478   3.722   4.234
17728SOL     OW55190   3.911   4.713   5.002
17728SOL    HW155191   4.005   4.694   4.986
17728SOL    HW255192   3.866   4.635   4.966
17729SOL     OW55193   5.259   4.700   3.917
17729SOL    HW155194   5.184   4.652   3.955
17729SOL    HW255195   5.307   4.730   3.996
17730SOL     OW55196   4.052   3.961   5.493
17730SOL    HW155197   4.103   4.027   5.542
17730SOL    HW255198   3.961   3.978   5.523
17731SOL     OW55199   5.147   5.172   4.646
17731SOL    HW155200   5.105   5.176   4.734
17731SOL    HW255201   5.162   5.075   4.637
17732SOL     OW55202   5.370   5.474   4.289
17732SOL    HW155203   5.359   5.422   4.208
17732SOL    HW255204   5.340   5.408   4.355
17733SOL     OW55205   4.298   4.434   3.984
17733SOL    HW155206   4.308   4.524   3.950
17733SOL    HW255207   4.231   4.446   4.054
17734SOL     OW55208   5.307   5.374   4.024
17734SOL    HW155209   5.399   5.403   4.029
17734SOL    HW255210   5.303   5.340   3.933
17735SOL     OW55211   4.494   4.363   5.175
17735SOL    HW155212   4.503   4.330   5.267
17735SOL    HW255213   4.456   4.286   5.131
17736SOL     OW55214   5.135   4.177   5.423
17736SOL    HW155215   5.101   4.227   5.499
17736SOL    HW255216   5.220   4.147   5.459
17737SOL     OW55217   4.699   4.577   5.277
17737SOL    HW155218   4.731   4.495   5.237
17737SOL    HW255219   4.657   4.622   5.202
17738SOL     OW55220   4.649   4.130   4.948
17738SOL    HW155221   4.679   4.118   5.039
17738SOL    HW255222   4.730   4.111   4.899
17739SOL     OW55223   4.762   4.405   4.132
17739SOL    HW155224   4.781   4.422   4.227
17739SOL    HW255225   4.674   4.362   4.136
17740SOL     OW55226   3.818   4.534   4.527
17740SOL    HW155227   3.898   4.538   4.582
17740SOL    HW255228   3.778   4.620   4.549
17741SOL     OW55229   3.798   5.529   5.270
17741SOL    HW155230   3.825   5.516   5.363
17741SOL    HW255231   3.756   5.616   5.277
17742SOL     OW55232   4.602   4.104   3.910
17742SOL    HW155233   4.645   4.166   3.848
17742SOL    HW255234   4.659   4.027   3.902
17743SOL     OW55235   5.444   4.333   5.525
17743SOL    HW155236   5.390   4.394   5.471
17743SOL    HW255237   5.451   4.253   5.473
17744SOL     OW55238   5.091   4.884   4.274
17744SOL    HW155239   5.184   4.867   4.250
17744SOL    HW255240   5.068   4.958   4.216
17745SOL     OW55241   4.282   3.942   4.609
17745SOL    HW155242   4.287   3.932   4.707
17745SOL    HW255243   4.296   4.037   4.596
17746SOL     OW55244   4.697   5.167   4.225
17746SOL    HW155245   4.691   5.249   4.173
17746SOL    HW255246   4.693   5.200   4.316
17747SOL     OW55247   4.065   5.548   4.573
17747SOL    HW155248   4.112   5.463   4.582
17747SOL    HW255249   4.134   5.610   4.600
17748SOL     OW55250   5.475   4.829   4.590
17748SOL    HW155251   5.450   4.764   4.522
17748SOL    HW255252   5.431   4.799   4.671
17749SOL     OW55253   4.024   4.669   3.972
17749SOL    HW155254   4.113   4.683   3.937
17749SOL    HW255255   4.000   4.582   3.936
17750SOL     OW55256   5.183   4.498   4.477
17750SOL    HW155257   5.201   4.435   4.548
17750SOL    HW255258   5.274   4.523   4.450
17751SOL     OW55259   4.835   5.491   3.980
17751SOL    HW155260   4.759   5.445   4.020
17751SOL    HW255261   4.844   5.447   3.894
17752SOL     OW55262   3.883   4.012   5.226
17752SOL    HW155263   3.885   4.089   5.288
17752SOL    HW255264   3.889   3.937   5.287
17753SOL     OW55265   5.346   5.071   3.829
17753SOL    HW155266   5.301   5.154   3.806
17753SOL    HW255267   5.286   5.005   3.789
17754SOL     OW55268   4.184   5.460   4.044
17754SOL    HW155269   4.222   5.513   4.117
17754SOL    HW255270   4.261   5.442   3.989
17755SOL     OW55271   5.123   3.814   4.155
17755SOL    HW155272   5.136   3.777   4.067
17755SOL    HW255273   5.214   3.842   4.178
17756SOL     OW55274   3.990   5.533   4.970
17756SOL    HW155275   4.042   5.466   5.017
17756SOL    HW255276   3.962   5.485   4.892
17757SOL     OW55277   4.694   5.442   4.608
17757SOL    HW155278   4.767   5.378   4.618
17757SOL    HW255279   4.637   5.395   4.545
17758SOL     OW55280   4.099   4.431   4.175
17758SOL    HW155281   4.128   4.341   4.202
17758SOL    HW255282   4.006   4.428   4.200
17759SOL     OW55283   4.346   3.852   3.825
17759SOL    HW155284   4.428   3.804   3.837
17759SOL    HW255285   4.302   3.801   3.754
17760SOL     OW55286   4.508   3.946   5.464
17760SOL    HW155287   4.594   3.903   5.450
17760SOL    HW255288   4.524   3.996   5.547
17761SOL     OW55289   4.607   5.263   4.927
17761SOL    HW155290   4.606   5.214   4.844
17761SOL    HW255291   4.677   5.220   4.979
17762SOL     OW55292   5.068   4.339   5.192
17762SOL    HW155293   5.117   4.284   5.255
17762SOL    HW255294   5.124   4.417   5.178
17763SOL     OW55295   4.540   5.142   4.671
17763SOL    HW155296   4.621   5.125   4.619
17763SOL    HW255297   4.469   5.141   4.604
17764SOL     OW55298   4.662   4.248   4.617
17764SOL    HW155299   4.643   4.228   4.522
17764SOL    HW255300   4.667   4.159   4.655
17765SOL     OW55301   4.293   3.767   4.227
17765SOL    HW155302   4.217   3.771   4.288
17765SOL    HW255303   4.279   3.850   4.176
17766SOL     OW55304   5.158   4.886   3.745
17766SOL    HW155305   5.198   4.817   3.802
17766SOL    HW255306   5.078   4.908   3.793
17767SOL     OW55307   4.000   3.767   3.916
17767SOL    HW155308   4.056   3.839   3.886
17767SOL    HW255309   4.065   3.708   3.958
17768SOL     OW55310   4.650   3.966   4.210
17768SOL    HW155311   4.630   4.023   4.134
17768SOL    HW255312   4.744   3.988   4.225
17769SOL     OW55313   4.805   4.350   5.151
17769SOL    HW155314   4.779   4.287   5.221
17769SOL    HW255315   4.903   4.343   5.158
17770SOL     OW55316   4.936   5.296   4.531
17770SOL    HW155317   4.956   5.366   4.467
17770SOL    HW255318   5.025   5.271   4.565
17771SOL     OW55319   4.192   4.884   4.461
17771SOL    HW155320   4.121   4.850   4.519
17771SOL    HW255321   4.156   4.861   4.373
17772SOL     OW55322   4.987   5.517   4.334
17772SOL    HW155323   5.036   5.580   4.277
17772SOL    HW255324   4.930   5.577   4.386
17773SOL     OW55325   4.777   4.255   3.745
17773SOL    HW155326   4.734   4.340   3.728
17773SOL    HW255327   4.849   4.277   3.807
17774SOL     OW55328   3.810   4.286   5.121
17774SOL    HW155329   3.906   4.273   5.109
17774SOL    HW255330   3.808   4.364   5.179
17775SOL     OW55331   4.288   3.900   4.866
17775SOL    HW155332   4.350   3.875   4.936
17775SOL    HW255333   4.209   3.925   4.917
17776SOL     OW55334   4.594   4.191   4.361
17776SOL    HW155335   4.541   4.236   4.295
17776SOL    HW255336   4.595   4.099   4.331
17777SOL     OW55337   4.797   3.759   4.496
17777SOL    HW155338   4.721   3.789   4.444
17777SOL    HW255339   4.755   3.709   4.568
17778SOL     OW55340   5.163   4.910   4.615
17778SOL    HW155341   5.126   4.820   4.615
17778SOL    HW255342   5.217   4.909   4.534
17779SOL     OW55343   5.190   4.324   4.702
17779SOL    HW155344   5.138   4.263   4.758
17779SOL    HW255345   5.266   4.339   4.760
17780SOL     OW55346   5.563   4.581   4.096
17780SOL    HW155347   5.599   4.550   4.180
17780SOL    HW255348   5.554   4.497   4.046
17781SOL     OW55349   4.217   5.146   3.845
17781SOL    HW155350   4.140   5.135   3.904
17781SOL    HW255351   4.193   5.090   3.770
17782SOL     OW55352   5.407   5.032   4.388
17782SOL    HW155353   5.484   5.019   4.446
17782SOL    HW255354   5.387   5.124   4.408
17783SOL     OW55355   5.143   4.309   3.810
17783SOL    HW155356   5.085   4.287   3.885
17783SOL    HW255357   5.231   4.292   3.848
17784SOL     OW55358   4.241   3.960   4.047
17784SOL    HW155359   4.282   3.928   3.965
17784SOL    HW255360   4.206   4.046   4.016
17785SOL     OW55361   4.839   4.954   4.831
17785SOL    HW155362   4.805   4.987   4.917
17785SOL    HW255363   4.783   4.999   4.766
17786SOL     OW55364   5.328   4.829   4.822
17786SOL    HW155365   5.361   4.893   4.886
17786SOL    HW255366   5.265   4.880   4.769
17787SOL     OW55367   4.611   3.858   5.074
17787SOL    HW155368   4.661   3.814   5.003
17787SOL    HW255369   4.683   3.879   5.138
17788SOL     OW55370   4.632   4.775   5.473
17788SOL    HW155371   4.551   4.829   5.469
17788SOL    HW255372   4.669   4.782   5.384
17789SOL     OW55373   4.439   4.787   4.084
17789SOL    HW155374   4.422   4.770   4.178
17789SOL    HW255375   4.514   4.727   4.065
17790SOL     OW55376   4.157   4.530   4.994
17790SOL    HW155377   4.221   4.542   5.066
17790SOL    HW255378   4.119   4.443   5.013
17791SOL     OW55379   3.811   5.296   5.077
17791SOL    HW155380   3.796   5.388   5.103
17791SOL    HW255381   3.908   5.291   5.067
17792SOL     OW55382   4.084   4.826   4.215
17792SOL    HW155383   4.081   4.896   4.150
17792SOL    HW255384   4.064   4.747   4.162
17793SOL     OW55385   4.273   4.253   4.554
17793SOL    HW155386   4.294   4.320   4.486
17793SOL    HW255387   4.332   4.279   4.627
17794SOL     OW55388   4.949   5.088   4.103
17794SOL    HW155389   4.996   5.164   4.144
17794SOL    HW255390   4.876   5.074   4.165
17795SOL     OW55391   5.006   5.164   4.867
17795SOL    HW155392   4.960   5.166   4.954
17795SOL    HW255393   4.971   5.079   4.836
17796SOL     OW55394   4.072   5.257   5.032
17796SOL    HW155395   4.060   5.217   4.943
17796SOL    HW255396   4.169   5.269   5.031
17797SOL     OW55397   4.137   4.419   5.323
17797SOL    HW155398   4.192   4.491   5.285
17797SOL    HW255399   4.203   4.352   5.344
17798SOL     OW55400   5.319   4.514   5.383
17798SOL    HW155401   5.235   4.564   5.376
17798SOL    HW255402   5.376   4.561   5.319
17799SOL     OW55403   4.219   3.730   5.491
17799SOL    HW155404   4.188   3.677   5.416
17799SOL    HW255405   4.163   3.810   5.482
17800SOL     OW55406   4.276   4.612   4.766
17800SOL    HW155407   4.329   4.692   4.780
17800SOL    HW255408   4.252   4.586   4.857
17801SOL     OW55409   5.083   4.582   4.758
17801SOL    HW155410   4.999   4.550   4.723
17801SOL    HW255411   5.138   4.503   4.753
17802SOL     OW55412   4.938   4.241   3.995
17802SOL    HW155413   4.956   4.175   4.065
17802SOL    HW255414   4.879   4.303   4.042
17803SOL     OW55415   4.022   3.931   4.975
17803SOL    HW155416   3.980   3.945   5.062
17803SOL    HW255417   4.017   3.834   4.966
17804SOL     OW55418   3.761   5.032   4.994
17804SOL    HW155419   3.797   4.969   5.059
17804SOL    HW255420   3.783   5.116   5.037
17805SOL     OW55421   4.423   4.361   4.755
17805SOL    HW155422   4.514   4.336   4.734
17805SOL    HW255423   4.420   4.457   4.744
17806SOL     OW55424   5.471   4.685   5.579
17806SOL    HW155425   5.436   4.637   5.503
17806SOL    HW255426   5.391   4.695   5.633
17807SOL     OW55427   4.031   3.780   4.334
17807SOL    HW155428   4.006   3.872   4.353
17807SOL    HW255429   4.030   3.741   4.423
17808SOL     OW55430   5.304   4.103   4.077
17808SOL    HW155431   5.344   4.028   4.125
17808SOL    HW255432   5.333   4.175   4.137
17809SOL     OW55433   4.766   4.489   4.681
17809SOL    HW155434   4.750   4.495   4.778
17809SOL    HW255435   4.737   4.397   4.664
17810SOL     OW55436   5.580   5.229   5.348
17810SOL    HW155437   5.589   5.138   5.316
17810SOL    HW255438   5.661   5.243   5.400
17811SOL     OW55439   4.091   4.648   5.490
17811SOL    HW155440   4.143   4.664   5.571
17811SOL    HW255441   4.110   4.555   5.473
17812SOL     OW55442   5.243   3.985   3.846
17812SOL    HW155443   5.180   3.921   3.882
17812SOL    HW255444   5.272   4.033   3.927
17813SOL     OW55445   4.997   4.537   3.728
17813SOL    HW155446   5.060   4.465   3.746
17813SOL    HW255447   5.035   4.577   3.648
17814SOL     OW55448   4.775   5.086   4.568
17814SOL    HW155449   4.805   5.007   4.519
17814SOL    HW255450   4.849   5.150   4.557
17815SOL     OW55451   4.011   4.548   4.725
17815SOL    HW155452   4.106   4.568   4.731
17815SOL    HW255453   4.012   4.451   4.735
17816SOL     OW55454   4.050   4.271   4.716
17816SOL    HW155455   4.017   4.181   4.707
17816SOL    HW255456   4.125   4.272   4.652
17817SOL     OW55457   4.826   4.188   5.384
17817SOL    HW155458   4.806   4.218   5.475
17817SOL    HW255459   4.920   4.165   5.390
17818SOL     OW55460   3.730   5.055   3.924
17818SOL    HW155461   3.639   5.068   3.889
17818SOL    HW255462   3.726   4.963   3.956
17819SOL     OW55463   3.821   5.510   4.662
17819SOL    HW155464   3.794   5.437   4.604
17819SOL    HW255465   3.914   5.526   4.634
17820SOL     OW55466   4.203   5.330   4.628
17820SOL    HW155467   4.271   5.388   4.668
17820SOL    HW255468   4.257   5.254   4.599
17821SOL     OW55469   4.702   4.487   4.940
17821SOL    HW155470   4.760   4.445   5.007
17821SOL    HW255471   4.616   4.464   4.977
17822SOL     OW55472   3.732   4.225   4.867
17822SOL    HW155473   3.798   4.210   4.797
17822SOL    HW255474   3.781   4.281   4.929
17823SOL     OW55475   3.901   4.226   5.390
17823SOL    HW155476   3.997   4.226   5.377
17823SOL    HW255477   3.876   4.317   5.366
17824SOL     OW55478   5.103   4.670   5.377
17824SOL    HW155479   5.114   4.757   5.421
17824SOL    HW255480   5.104   4.697   5.284
17825SOL     OW55481   4.519   4.301   4.090
17825SOL    HW155482   4.534   4.230   4.025
17825SOL    HW255483   4.438   4.344   4.057
17826SOL     OW55484   5.369   4.359   4.913
17826SOL    HW155485   5.293   4.304   4.941
17826SOL    HW255486   5.443   4.308   4.949
17827SOL     OW55487   4.349   4.205   4.970
17827SOL    HW155488   4.418   4.137   4.964
17827SOL    HW255489   4.383   4.272   4.907
17828SOL     OW55490   4.160   4.196   3.919
17828SOL    HW155491   4.228   4.266   3.923
17828SOL    HW255492   4.079   4.249   3.909
17829SOL     OW55493   3.797   4.849   5.194
17829SOL    HW155494   3.831   4.807   5.277
17829SOL    HW255495   3.854   4.805   5.127
17830SOL     OW55496   5.044   4.786   4.926
17830SOL    HW155497   5.060   4.715   4.860
17830SOL    HW255498   4.966   4.831   4.889
17831SOL     OW55499   5.026   4.577   3.993
17831SOL    HW155500   4.951   4.538   4.039
17831SOL    HW255501   5.005   4.567   3.899
17832SOL     OW55502   4.982   5.444   4.860
17832SOL    HW155503   5.076   5.459   4.841
17832SOL    HW255504   4.977   5.347   4.852
17833SOL     OW55505   3.830   4.966   4.742
17833SOL    HW155506   3.807   4.979   4.837
17833SOL    HW255507   3.751   4.922   4.709
17834SOL     OW55508   5.390   3.860   4.206
17834SOL    HW155509   5.481   3.870   4.172
17834SOL    HW255510   5.400   3.788   4.270
17835SOL     OW55511   5.090   5.304   4.189
17835SOL    HW155512   5.160   5.334   4.129
17835SOL    HW255513   5.053   5.387   4.225
17836SOL     OW55514   3.845   5.516   5.549
17836SOL    HW155515   3.817   5.463   5.625
17836SOL    HW255516   3.880   5.593   5.596
17837SOL     OW55517   4.975   4.653   4.394
17837SOL    HW155518   5.051   4.598   4.422
17837SOL    HW255519   5.022   4.729   4.355
17838SOL     OW55520   4.515   4.949   5.075
17838SOL    HW155521   4.586   4.979   5.137
17838SOL    HW255522   4.436   4.943   5.134
17839SOL     OW55523   4.400   5.333   3.867
17839SOL    HW155524   4.393   5.361   3.773
17839SOL    HW255525   4.329   5.265   3.873
17840SOL     OW55526   3.970   4.028   4.418
17840SOL    HW155527   3.884   4.073   4.401
17840SOL    HW255528   3.987   4.051   4.510
17841SOL     OW55529   4.911   5.352   3.751
17841SOL    HW155530   4.919   5.256   3.768
17841SOL    HW255531   4.871   5.355   3.662
17842SOL     OW55532   4.579   4.695   5.075
17842SOL    HW155533   4.634   4.686   4.996
17842SOL    HW255534   4.561   4.791   5.077
17843SOL     OW55535   4.641   4.638   3.996
17843SOL    HW155536   4.717   4.677   3.950
17843SOL    HW255537   4.679   4.560   4.039
17844SOL     OW55538   5.220   5.298   3.752
17844SOL    HW155539   5.133   5.340   3.749
17844SOL    HW255540   5.254   5.313   3.662
17845SOL     OW55541   4.032   4.993   5.150
17845SOL    HW155542   4.049   5.086   5.134
17845SOL    HW255543   4.068   4.976   5.238
17846SOL     OW55544   4.761   4.847   4.418
17846SOL    HW155545   4.699   4.795   4.472
17846SOL    HW255546   4.835   4.784   4.407
17847SOL     OW55547   4.715   3.950   4.695
17847SOL    HW155548   4.772   3.917   4.625
17847SOL    HW255549   4.741   3.895   4.771
17848SOL     OW55550   4.345   5.201   4.237
17848SOL    HW155551   4.385   5.169   4.155
17848SOL    HW255552   4.260   5.236   4.209
17849SOL     OW55553   5.481   4.163   5.104
17849SOL    HW155554   5.469   4.237   5.164
17849SOL    HW255555   5.487   4.088   5.166
17850SOL     OW55556   3.978   5.108   3.999
17850SOL    HW155557   3.882   5.091   3.991
17850SOL    HW255558   3.985   5.126   4.095
17851SOL     OW55559   3.839   4.719   5.417
17851SOL    HW155560   3.774   4.700   5.487
17851SOL    HW255561   3.925   4.709   5.463
17852SOL     OW55562   4.384   3.916   5.212
17852SOL    HW155563   4.467   3.907   5.159
17852SOL    HW255564   4.421   3.938   5.300
17853SOL     OW55565   3.811   4.079   3.761
17853SOL    HW155566   3.724   4.066   3.723
17853SOL    HW255567   3.850   4.144   3.701
17854SOL     OW55568   5.206   4.568   5.109
17854SOL    HW155569   5.157   4.634   5.059
17854SOL    HW255570   5.298   4.588   5.085
17855SOL     OW55571   3.769   3.890   4.012
17855SOL    HW155572   3.768   3.979   3.973
17855SOL    HW255573   3.853   3.854   3.976
17856SOL     OW55574   4.916   5.083   3.837
17856SOL    HW155575   4.860   5.008   3.859
17856SOL    HW255576   4.954   5.101   3.926
17857SOL     OW55577   4.329   4.573   5.185
17857SOL    HW155578   4.388   4.650   5.189
17857SOL    HW255579   4.396   4.502   5.181
17858SOL     OW55580   4.457   4.263   5.416
17858SOL    HW155581   4.496   4.340   5.462
17858SOL    HW255582   4.478   4.191   5.477
17859SOL     OW55583   5.435   4.622   4.950
17859SOL    HW155584   5.404   4.536   4.915
17859SOL    HW255585   5.387   4.688   4.896
17860SOL     OW55586   4.918   4.033   4.209
17860SOL    HW155587   4.996   3.977   4.194
17860SOL    HW255588   4.947   4.083   4.290
17861SOL     OW55589   4.311   4.470   4.369
17861SOL    HW155590   4.342   4.562   4.375
17861SOL    HW255591   4.237   4.477   4.307
17862SOL     OW55592   5.479   4.664   5.228
17862SOL    HW155593   5.489   4.759   5.249
17862SOL    HW255594   5.495   4.662   5.132
17863SOL     OW55595   4.381   5.531   4.670
17863SOL    HW155596   4.374   5.626   4.653
17863SOL    HW255597   4.476   5.517   4.675
17864SOL     OW55598   4.588   4.674   4.560
17864SOL    HW155599   4.647   4.608   4.601
17864SOL    HW255600   4.558   4.727   4.637
17865SOL     OW55601   4.825   4.728   3.810
17865SOL    HW155602   4.791   4.778   3.734
17865SOL    HW255603   4.877   4.658   3.766
17866SOL     OW55604   3.803   4.981   4.402
17866SOL    HW155605   3.794   4.932   4.485
17866SOL    HW255606   3.882   4.940   4.365
17867SOL     OW55607   4.153   4.167   4.255
17867SOL    HW155608   4.202   4.098   4.209
17867SOL    HW255609   4.108   4.118   4.326
17868SOL     OW55610   4.066   4.258   5.012
17868SOL    HW155611   4.148   4.232   5.058
17868SOL    HW255612   4.087   4.233   4.921
17869SOL     OW55613   4.544   5.324   4.401
17869SOL    HW155614   4.531   5.351   4.310
17869SOL    HW255615   4.465   5.270   4.417
17870SOL     OW55616   4.735   3.717   4.873
17870SOL    HW155617   4.695   3.637   4.838
17870SOL    HW255618   4.830   3.694   4.872
17871SOL     OW55619   4.528   5.059   4.029
17871SOL    HW155620   4.495   4.968   4.044
17871SOL    HW255621   4.587   5.070   4.106
17872SOL     OW55622   4.326   5.303   4.995
17872SOL    HW155623   4.342   5.393   5.028
17872SOL    HW255624   4.415   5.281   4.964
17873SOL     OW55625   5.058   3.757   3.885
17873SOL    HW155626   5.065   3.687   3.819
17873SOL    HW255627   4.971   3.793   3.870
17874SOL     OW55628   4.993   4.160   4.426
17874SOL    HW155629   4.954   4.249   4.421
17874SOL    HW255630   5.025   4.157   4.517
17875SOL     OW55631   3.772   4.799   4.024
17875SOL    HW155632   3.864   4.785   3.997
17875SOL    HW255633   3.746   4.707   4.049
17876SOL     OW55634   4.608   5.371   4.052
17876SOL    HW155635   4.525   5.355   4.003
17876SOL    HW255636   4.588   5.453   4.103
17877SOL     OW55637   3.935   4.299   5.680
17877SOL    HW155638   3.892   4.355   5.747
17877SOL    HW255639   3.963   4.363   5.613
17878SOL     OW55640   3.945   4.010   6.588
17878SOL    HW155641   3.975   3.981   6.676
17878SOL    HW255642   3.857   3.968   6.582
17879SOL     OW55643   3.723   4.117   6.227
17879SOL    HW155644   3.634   4.137   6.264
17879SOL    HW255645   3.704   4.047   6.164
17880SOL     OW55646   4.303   4.992   6.789
17880SOL    HW155647   4.244   4.974   6.715
17880SOL    HW255648   4.294   5.088   6.798
17881SOL     OW55649   4.798   4.494   6.270
17881SOL    HW155650   4.879   4.548   6.267
17881SOL    HW255651   4.774   4.496   6.363
17882SOL     OW55652   4.592   4.488   7.375
17882SOL    HW155653   4.573   4.567   7.427
17882SOL    HW255654   4.626   4.528   7.292
17883SOL     OW55655   4.393   4.749   6.241
17883SOL    HW155656   4.472   4.729   6.294
17883SOL    HW255657   4.343   4.804   6.301
17884SOL     OW55658   4.384   4.894   7.399
17884SOL    HW155659   4.444   4.969   7.386
17884SOL    HW255660   4.307   4.919   7.344
17885SOL     OW55661   4.149   4.108   7.129
17885SOL    HW155662   4.227   4.058   7.098
17885SOL    HW255663   4.075   4.062   7.086
17886SOL     OW55664   4.329   4.709   5.688
17886SOL    HW155665   4.344   4.782   5.623
17886SOL    HW255666   4.355   4.751   5.772
17887SOL     OW55667   5.331   3.817   7.086
17887SOL    HW155668   5.354   3.889   7.023
17887SOL    HW255669   5.332   3.867   7.169
17888SOL     OW55670   3.813   4.389   6.150
17888SOL    HW155671   3.816   4.295   6.175
17888SOL    HW255672   3.831   4.435   6.235
17889SOL     OW55673   3.847   4.459   7.167
17889SOL    HW155674   3.936   4.497   7.160
17889SOL    HW255675   3.792   4.538   7.178
17890SOL     OW55676   4.281   5.111   6.317
17890SOL    HW155677   4.231   5.036   6.356
17890SOL    HW255678   4.344   5.067   6.260
17891SOL     OW55679   3.876   4.694   6.871
17891SOL    HW155680   3.973   4.698   6.876
17891SOL    HW255681   3.860   4.630   6.802
17892SOL     OW55682   5.256   4.719   5.736
17892SOL    HW155683   5.223   4.638   5.778
17892SOL    HW255684   5.295   4.766   5.812
17893SOL     OW55685   4.922   5.513   7.211
17893SOL    HW155686   4.923   5.588   7.150
17893SOL    HW255687   4.968   5.446   7.159
17894SOL     OW55688   4.084   3.952   7.370
17894SOL    HW155689   4.128   4.028   7.329
17894SOL    HW255690   4.013   3.993   7.422
17895SOL     OW55691   4.306   4.423   5.839
17895SOL    HW155692   4.330   4.507   5.798
17895SOL    HW255693   4.228   4.446   5.891
17896SOL     OW55694   5.274   5.390   5.877
17896SOL    HW155695   5.340   5.354   5.817
17896SOL    HW255696   5.204   5.322   5.878
17897SOL     OW55697   4.537   4.345   7.049
17897SOL    HW155698   4.508   4.306   7.133
17897SOL    HW255699   4.484   4.298   6.982
17898SOL     OW55700   5.112   4.197   7.271
17898SOL    HW155701   5.124   4.253   7.349
17898SOL    HW255702   5.200   4.159   7.259
17899SOL     OW55703   4.693   4.606   7.165
17899SOL    HW155704   4.773   4.568   7.122
17899SOL    HW255705   4.650   4.644   7.086
17900SOL     OW55706   4.735   4.095   6.863
17900SOL    HW155707   4.703   4.186   6.871
17900SOL    HW255708   4.740   4.085   6.766
17901SOL     OW55709   4.773   4.448   6.010
17901SOL    HW155710   4.776   4.450   6.108
17901SOL    HW255711   4.706   4.380   5.991
17902SOL     OW55712   3.832   4.526   6.384
17902SOL    HW155713   3.907   4.530   6.447
17902SOL    HW255714   3.782   4.605   6.412
17903SOL     OW55715   4.559   4.082   5.690
17903SOL    HW155716   4.597   4.170   5.679
17903SOL    HW255717   4.633   4.044   5.743
17904SOL     OW55718   5.450   4.325   7.430
17904SOL    HW155719   5.404   4.393   7.375
17904SOL    HW255720   5.480   4.264   7.360
17905SOL     OW55721   4.264   3.917   6.473
17905SOL    HW155722   4.274   3.933   6.569
17905SOL    HW255723   4.280   4.005   6.436
17906SOL     OW55724   4.051   4.573   5.769
17906SOL    HW155725   4.109   4.618   5.832
17906SOL    HW255726   3.969   4.621   5.785
17907SOL     OW55727   4.167   4.977   7.275
17907SOL    HW155728   4.120   4.961   7.191
17907SOL    HW255729   4.096   5.012   7.331
17908SOL     OW55730   3.897   4.007   7.071
17908SOL    HW155731   3.834   4.075   7.099
17908SOL    HW255732   3.876   3.933   7.129
17909SOL     OW55733   4.103   4.406   6.037
17909SOL    HW155734   4.125   4.318   6.075
17909SOL    HW255735   4.012   4.419   6.063
17910SOL     OW55736   5.275   3.977   7.309
17910SOL    HW155737   5.263   3.982   7.406
17910SOL    HW255738   5.192   3.937   7.280
17911SOL     OW55739   4.331   3.840   5.719
17911SOL    HW155740   4.425   3.859   5.703
17911SOL    HW255741   4.303   3.798   5.636
17912SOL     OW55742   4.496   3.983   7.311
17912SOL    HW155743   4.570   3.922   7.331
17912SOL    HW255744   4.446   3.984   7.393
17913SOL     OW55745   5.091   4.295   7.020
17913SOL    HW155746   5.081   4.279   7.116
17913SOL    HW255747   5.029   4.368   7.003
17914SOL     OW55748   4.280   3.765   6.088
17914SOL    HW155749   4.212   3.792   6.150
17914SOL    HW255750   4.299   3.850   6.043
17915SOL     OW55751   5.123   4.866   5.566
17915SOL    HW155752   5.180   4.812   5.625
17915SOL    HW255753   5.050   4.888   5.624
17916SOL     OW55754   4.016   3.780   5.790
17916SOL    HW155755   4.080   3.853   5.782
17916SOL    HW255756   4.075   3.709   5.822
17917SOL     OW55757   4.759   4.299   5.613
17917SOL    HW155758   4.705   4.378   5.593
17917SOL    HW255759   4.792   4.314   5.703
17918SOL     OW55760   3.781   4.282   6.976
17918SOL    HW155761   3.875   4.273   6.949
17918SOL    HW255762   3.789   4.355   7.041
17919SOL     OW55763   4.286   3.947   6.738
17919SOL    HW155764   4.340   3.891   6.796
17919SOL    HW255765   4.198   3.940   6.779
17920SOL     OW55766   4.554   4.159   6.168
17920SOL    HW155767   4.543   4.247   6.130
17920SOL    HW255768   4.624   4.172   6.235
17921SOL     OW55769   4.792   3.724   6.366
17921SOL    HW155770   4.732   3.773   6.307
17921SOL    HW255771   4.741   3.719   6.448
17922SOL     OW55772   5.571   4.488   5.930
17922SOL    HW155773   5.636   4.426   5.961
17922SOL    HW255774   5.535   4.441   5.853
17923SOL     OW55775   5.129   4.314   5.658
17923SOL    HW155776   5.115   4.309   5.755
17923SOL    HW255777   5.226   4.311   5.652
17924SOL     OW55778   4.264   3.987   5.937
17924SOL    HW155779   4.309   3.943   5.862
17924SOL    HW255780   4.243   4.073   5.896
17925SOL     OW55781   5.462   4.953   7.150
17925SOL    HW155782   5.549   4.912   7.131
17925SOL    HW255783   5.489   5.044   7.174
17926SOL     OW55784   5.305   5.316   7.223
17926SOL    HW155785   5.320   5.356   7.135
17926SOL    HW255786   5.386   5.264   7.234
17927SOL     OW55787   5.452   4.870   6.678
17927SOL    HW155788   5.400   4.906   6.752
17927SOL    HW255789   5.392   4.804   6.640
17928SOL     OW55790   4.630   3.816   6.984
17928SOL    HW155791   4.662   3.796   6.894
17928SOL    HW255792   4.703   3.870   7.018
17929SOL     OW55793   4.717   4.811   7.346
17929SOL    HW155794   4.670   4.891   7.318
17929SOL    HW255795   4.721   4.759   7.265
17930SOL     OW55796   4.404   4.781   5.956
17930SOL    HW155797   4.402   4.773   6.052
17930SOL    HW255798   4.480   4.726   5.933
17931SOL     OW55799   4.149   4.542   6.857
17931SOL    HW155800   4.225   4.537   6.920
17931SOL    HW255801   4.107   4.455   6.867
17932SOL     OW55802   4.271   4.257   6.438
17932SOL    HW155803   4.281   4.321   6.364
17932SOL    HW255804   4.348   4.281   6.493
17933SOL     OW55805   4.150   4.445   7.197
17933SOL    HW155806   4.210   4.497   7.140
17933SOL    HW255807   4.194   4.359   7.196
17934SOL     OW55808   5.338   4.482   7.251
17934SOL    HW155809   5.251   4.526   7.242
17934SOL    HW255810   5.387   4.524   7.177
17935SOL     OW55811   4.719   3.838   7.344
17935SOL    HW155812   4.772   3.914   7.318
17935SOL    HW255813   4.767   3.765   7.302
17936SOL     OW55814   4.231   3.721   7.348
17936SOL    HW155815   4.182   3.676   7.277
17936SOL    HW255816   4.180   3.805   7.352
17937SOL     OW55817   4.288   4.589   6.628
17937SOL    HW155818   4.329   4.677   6.625
17937SOL    HW255819   4.235   4.592   6.710
17938SOL     OW55820   4.024   3.917   6.833
17938SOL    HW155821   3.977   3.947   6.913
17938SOL    HW255822   4.001   3.822   6.833
17939SOL     OW55823   4.442   4.372   6.618
17939SOL    HW155824   4.526   4.396   6.577
17939SOL    HW255825   4.394   4.458   6.615
17940SOL     OW55826   5.484   4.659   7.430
17940SOL    HW155827   5.433   4.615   7.360
17940SOL    HW255828   5.419   4.658   7.503
17941SOL     OW55829   4.031   3.798   6.192
17941SOL    HW155830   4.011   3.891   6.219
17941SOL    HW255831   4.037   3.754   6.279
17942SOL     OW55832   4.712   4.470   6.572
17942SOL    HW155833   4.729   4.487   6.668
17942SOL    HW255834   4.762   4.388   6.557
17943SOL     OW55835   5.572   5.203   7.197
17943SOL    HW155836   5.586   5.229   7.104
17943SOL    HW255837   5.650   5.242   7.239
17944SOL     OW55838   4.072   4.618   7.382
17944SOL    HW155839   4.155   4.647   7.422
17944SOL    HW255840   4.101   4.553   7.315
17945SOL     OW55841   5.022   4.556   5.621
17945SOL    HW155842   5.058   4.465   5.620
17945SOL    HW255843   5.054   4.590   5.536
17946SOL     OW55844   4.022   4.518   6.573
17946SOL    HW155845   4.108   4.560   6.559
17946SOL    HW255846   4.048   4.426   6.590
17947SOL     OW55847   4.060   4.251   6.602
17947SOL    HW155848   4.029   4.161   6.583
17947SOL    HW255849   4.136   4.259   6.540
17948SOL     OW55850   4.877   4.074   7.298
17948SOL    HW155851   4.828   4.144   7.345
17948SOL    HW255852   4.965   4.117   7.287
17949SOL     OW55853   4.894   3.923   7.068
17949SOL    HW155854   4.895   3.988   7.141
17949SOL    HW255855   4.871   3.979   6.992
17950SOL     OW55856   3.762   4.262   6.686
17950SOL    HW155857   3.846   4.248   6.639
17950SOL    HW255858   3.790   4.272   6.777
17951SOL     OW55859   3.944   4.227   7.291
17951SOL    HW155860   4.011   4.200   7.226
17951SOL    HW255861   3.906   4.306   7.249
17952SOL     OW55862   5.104   4.615   7.213
17952SOL    HW155863   5.123   4.710   7.203
17952SOL    HW255864   5.038   4.598   7.143
17953SOL     OW55865   4.569   4.300   5.897
17953SOL    HW155866   4.555   4.206   5.882
17953SOL    HW255867   4.480   4.337   5.886
17954SOL     OW55868   5.429   4.298   6.869
17954SOL    HW155869   5.337   4.325   6.875
17954SOL    HW255870   5.444   4.298   6.774
17955SOL     OW55871   4.371   4.242   6.850
17955SOL    HW155872   4.374   4.151   6.820
17955SOL    HW255873   4.400   4.291   6.770
17956SOL     OW55874   4.176   4.194   5.777
17956SOL    HW155875   4.231   4.272   5.798
17956SOL    HW255876   4.091   4.235   5.756
17957SOL     OW55877   5.010   4.634   5.915
17957SOL    HW155878   4.944   4.571   5.947
17957SOL    HW255879   5.009   4.618   5.819
17958SOL     OW55880   3.705   4.924   6.657
17958SOL    HW155881   3.744   4.886   6.737
17958SOL    HW255882   3.781   4.918   6.594
17959SOL     OW55883   4.460   5.390   7.375
17959SOL    HW155884   4.416   5.456   7.320
17959SOL    HW255885   4.546   5.386   7.330
17960SOL     OW55886   4.467   4.971   7.034
17960SOL    HW155887   4.487   5.052   7.082
17960SOL    HW255888   4.398   4.996   6.972
17961SOL     OW55889   5.384   5.430   7.000
17961SOL    HW155890   5.385   5.431   6.904
17961SOL    HW255891   5.366   5.524   7.021
17962SOL     OW55892   5.511   3.881   6.549
17962SOL    HW155893   5.548   3.805   6.502
17962SOL    HW255894   5.442   3.917   6.491
17963SOL     OW55895   3.966   4.037   6.291
17963SOL    HW155896   3.876   4.073   6.278
17963SOL    HW255897   3.980   4.046   6.386
17964SOL     OW55898   4.550   4.734   6.958
17964SOL    HW155899   4.626   4.755   6.902
17964SOL    HW255900   4.525   4.824   6.988
17965SOL     OW55901   4.618   4.630   5.874
17965SOL    HW155902   4.674   4.635   5.794
17965SOL    HW255903   4.670   4.566   5.927
17966SOL     OW55904   5.362   5.030   6.912
17966SOL    HW155905   5.392   5.001   6.999
17966SOL    HW255906   5.279   5.075   6.933
17967SOL     OW55907   5.444   4.054   6.999
17967SOL    HW155908   5.448   4.145   6.963
17967SOL    HW255909   5.485   4.004   6.926
17968SOL     OW55910   3.845   4.771   7.327
17968SOL    HW155911   3.774   4.726   7.376
17968SOL    HW255912   3.923   4.715   7.345
17969SOL     OW55913   4.386   3.897   7.083
17969SOL    HW155914   4.474   3.874   7.045
17969SOL    HW255915   4.412   3.939   7.167
17970SOL     OW55916   3.807   4.036   5.581
17970SOL    HW155917   3.716   4.059   5.601
17970SOL    HW255918   3.851   4.122   5.590
17971SOL     OW55919   3.768   3.901   5.879
17971SOL    HW155920   3.773   3.994   5.853
17971SOL    HW255921   3.853   3.867   5.845
17972SOL     OW55922   4.349   4.543   7.033
17972SOL    HW155923   4.401   4.625   7.020
17972SOL    HW255924   4.420   4.477   7.028
17973SOL     OW55925   4.454   4.261   7.292
17973SOL    HW155926   4.490   4.338   7.338
17973SOL    HW255927   4.525   4.196   7.297
17974SOL     OW55928   5.203   4.871   7.195
17974SOL    HW155929   5.159   4.913   7.271
17974SOL    HW255930   5.288   4.917   7.193
17975SOL     OW55931   4.297   4.456   6.260
17975SOL    HW155932   4.341   4.543   6.263
17975SOL    HW255933   4.239   4.465   6.183
17976SOL     OW55934   5.506   4.102   7.257
17976SOL    HW155935   5.504   4.114   7.160
17976SOL    HW255936   5.423   4.052   7.271
17977SOL     OW55937   5.473   4.646   7.098
17977SOL    HW155938   5.447   4.737   7.119
17977SOL    HW255939   5.478   4.648   7.001
17978SOL     OW55940   4.548   4.673   6.465
17978SOL    HW155941   4.611   4.601   6.477
17978SOL    HW255942   4.595   4.747   6.505
17979SOL     OW55943   4.780   4.646   5.668
17979SOL    HW155944   4.759   4.700   5.589
17979SOL    HW255945   4.866   4.606   5.645
17980SOL     OW55946   5.650   5.260   6.510
17980SOL    HW155947   5.617   5.215   6.430
17980SOL    HW255948   5.583   5.235   6.575
17981SOL     OW55949   3.974   5.054   7.440
17981SOL    HW155950   3.916   4.979   7.421
17981SOL    HW255951   3.928   5.096   7.515
17982SOL     OW55952   4.403   5.150   7.241
17982SOL    HW155953   4.321   5.112   7.205
17982SOL    HW255954   4.374   5.228   7.290
17983SOL     OW55955   5.543   3.883   6.817
17983SOL    HW155956   5.556   3.788   6.821
17983SOL    HW255957   5.526   3.895   6.721
17984SOL     OW55958   4.155   4.156   6.130
17984SOL    HW155959   4.201   4.085   6.081
17984SOL    HW255960   4.109   4.110   6.203
17985SOL     OW55961   5.445   5.195   6.711
17985SOL    HW155962   5.351   5.179   6.723
17985SOL    HW255963   5.484   5.125   6.765
17986SOL     OW55964   4.042   4.261   6.872
17986SOL    HW155965   4.130   4.239   6.907
17986SOL    HW255966   4.056   4.252   6.776
17987SOL     OW55967   5.137   3.919   6.735
17987SOL    HW155968   5.158   3.843   6.790
17987SOL    HW255969   5.045   3.939   6.755
17988SOL     OW55970   4.752   3.712   6.752
17988SOL    HW155971   4.698   3.656   6.695
17988SOL    HW255972   4.843   3.685   6.730
17989SOL     OW55973   3.958   4.359   7.588
17989SOL    HW155974   3.866   4.342   7.612
17989SOL    HW255975   3.963   4.339   7.494
17990SOL     OW55976   3.948   4.006   8.453
17990SOL    HW155977   3.972   3.977   8.543
17990SOL    HW255978   3.860   3.964   8.442
17991SOL     OW55979   3.727   4.130   8.078
17991SOL    HW155980   3.645   4.156   8.125
17991SOL    HW255981   3.700   4.049   8.036
17992SOL     OW55982   4.297   5.019   8.653
17992SOL    HW155983   4.209   5.001   8.617
17992SOL    HW255984   4.294   5.115   8.665
17993SOL     OW55985   5.301   5.234   8.166
17993SOL    HW155986   5.252   5.210   8.247
17993SOL    HW255987   5.229   5.242   8.100
17994SOL     OW55988   4.838   4.416   8.151
17994SOL    HW155989   4.876   4.502   8.125
17994SOL    HW255990   4.802   4.437   8.239
17995SOL     OW55991   5.491   4.324   7.689
17995SOL    HW155992   5.480   4.335   7.592
17995SOL    HW255993   5.438   4.245   7.705
17996SOL     OW55994   4.488   4.893   8.502
17996SOL    HW155995   4.414   4.932   8.553
17996SOL    HW255996   4.508   4.966   8.440
17997SOL     OW55997   4.596   4.482   9.252
17997SOL    HW155998   4.574   4.545   9.322
17997SOL    HW255999   4.622   4.540   9.178
17998SOL     OW56000   4.418   4.724   8.119
17998SOL    HW156001   4.476   4.708   8.195
17998SOL    HW256002   4.352   4.786   8.155
17999SOL     OW56003   4.422   4.883   9.267
17999SOL    HW156004   4.458   4.972   9.276
17999SOL    HW256005   4.334   4.900   9.227
18000SOL     OW56006   4.043   5.152   8.535
18000SOL    HW156007   3.973   5.103   8.488
18000SOL    HW256008   4.091   5.200   8.465
18001SOL     OW56009   5.194   5.222   8.825
18001SOL    HW156010   5.246   5.304   8.832
18001SOL    HW256011   5.129   5.232   8.896
18002SOL     OW56012   4.153   4.117   8.985
18002SOL    HW156013   4.230   4.061   8.965
18002SOL    HW256014   4.078   4.061   8.962
18003SOL     OW56015   5.360   4.168   8.187
18003SOL    HW156016   5.304   4.205   8.118
18003SOL    HW256017   5.331   4.223   8.263
18004SOL     OW56018   3.941   5.437   7.907
18004SOL    HW156019   3.971   5.515   7.957
18004SOL    HW256020   4.006   5.436   7.834
18005SOL     OW56021   4.851   5.070   9.119
18005SOL    HW156022   4.897   5.061   9.203
18005SOL    HW256023   4.804   4.985   9.115
18006SOL     OW56024   3.962   5.158   7.995
18006SOL    HW156025   3.961   5.255   7.981
18006SOL    HW256026   3.895   5.145   8.063
18007SOL     OW56027   3.993   4.803   8.349
18007SOL    HW156028   3.988   4.730   8.412
18007SOL    HW256029   3.940   4.871   8.395
18008SOL     OW56030   4.324   5.524   8.854
18008SOL    HW156031   4.251   5.495   8.913
18008SOL    HW256032   4.341   5.615   8.887
18009SOL     OW56033   4.294   4.715   7.573
18009SOL    HW156034   4.331   4.774   7.504
18009SOL    HW256035   4.338   4.751   7.651
18010SOL     OW56036   5.335   3.838   8.952
18010SOL    HW156037   5.342   3.915   8.893
18010SOL    HW256038   5.349   3.878   9.039
18011SOL     OW56039   3.843   4.376   8.011
18011SOL    HW156040   3.816   4.284   8.026
18011SOL    HW256041   3.839   4.416   8.100
18012SOL     OW56042   5.576   5.484   7.783
18012SOL    HW156043   5.581   5.472   7.879
18012SOL    HW256044   5.608   5.575   7.772
18013SOL     OW56045   5.406   4.637   8.096
18013SOL    HW156046   5.481   4.602   8.045
18013SOL    HW256047   5.372   4.703   8.035
18014SOL     OW56048   5.357   4.836   7.897
18014SOL    HW156049   5.444   4.841   7.854
18014SOL    HW256050   5.367   4.905   7.965
18015SOL     OW56051   3.838   4.474   9.029
18015SOL    HW156052   3.926   4.505   9.055
18015SOL    HW256053   3.784   4.554   9.032
18016SOL     OW56054   4.306   5.143   8.196
18016SOL    HW156055   4.270   5.052   8.202
18016SOL    HW256056   4.293   5.161   8.100
18017SOL     OW56057   5.014   4.959   8.875
18017SOL    HW156058   5.036   4.883   8.818
18017SOL    HW256059   5.067   4.942   8.955
18018SOL     OW56060   4.552   3.721   7.949
18018SOL    HW156061   4.586   3.812   7.938
18018SOL    HW256062   4.455   3.735   7.951
18019SOL     OW56063   3.906   4.699   8.714
18019SOL    HW156064   3.995   4.663   8.701
18019SOL    HW256065   3.850   4.637   8.666
18020SOL     OW56066   5.290   4.654   7.633
18020SOL    HW156067   5.205   4.614   7.656
18020SOL    HW256068   5.307   4.709   7.711
18021SOL     OW56069   4.905   5.523   9.074
18021SOL    HW156070   4.922   5.592   9.008
18021SOL    HW256071   4.929   5.442   9.025
18022SOL     OW56072   4.064   3.950   9.232
18022SOL    HW156073   4.107   4.035   9.246
18022SOL    HW256074   3.973   3.970   9.262
18023SOL     OW56075   5.195   5.145   8.409
18023SOL    HW156076   5.135   5.170   8.481
18023SOL    HW256077   5.159   5.059   8.380
18024SOL     OW56078   5.397   5.442   8.026
18024SOL    HW156079   5.358   5.416   7.940
18024SOL    HW256080   5.359   5.372   8.082
18025SOL     OW56081   4.322   4.444   7.725
18025SOL    HW156082   4.317   4.526   7.674
18025SOL    HW256083   4.245   4.449   7.783
18026SOL     OW56084   5.006   4.050   8.350
18026SOL    HW156085   4.913   4.027   8.370
18026SOL    HW256086   5.053   4.013   8.427
18027SOL     OW56087   5.327   5.355   7.748
18027SOL    HW156088   5.411   5.402   7.743
18027SOL    HW256089   5.296   5.358   7.656
18028SOL     OW56090   4.539   4.341   8.901
18028SOL    HW156091   4.514   4.311   8.991
18028SOL    HW256092   4.489   4.279   8.845
18029SOL     OW56093   5.116   4.206   9.115
18029SOL    HW156094   5.120   4.268   9.190
18029SOL    HW256095   5.183   4.140   9.140
18030SOL     OW56096   4.689   4.614   9.031
18030SOL    HW156097   4.727   4.532   8.993
18030SOL    HW256098   4.641   4.649   8.952
18031SOL     OW56099   4.687   4.139   8.689
18031SOL    HW156100   4.594   4.158   8.710
18031SOL    HW256101   4.679   4.089   8.607
18032SOL     OW56102   4.764   4.399   7.857
18032SOL    HW156103   4.771   4.426   7.951
18032SOL    HW256104   4.678   4.353   7.857
18033SOL     OW56105   3.829   4.519   8.241
18033SOL    HW156106   3.897   4.527   8.310
18033SOL    HW256107   3.778   4.600   8.254
18034SOL     OW56108   3.857   5.538   9.013
18034SOL    HW156109   3.854   5.530   9.111
18034SOL    HW256110   3.774   5.582   8.993
18035SOL     OW56111   4.608   4.110   7.648
18035SOL    HW156112   4.645   4.168   7.580
18035SOL    HW256113   4.631   4.023   7.613
18036SOL     OW56114   5.437   4.305   9.285
18036SOL    HW156115   5.403   4.385   9.239
18036SOL    HW256116   5.469   4.253   9.209
18037SOL     OW56117   5.086   4.873   8.019
18037SOL    HW156118   5.163   4.862   7.963
18037SOL    HW256119   5.033   4.935   7.965
18038SOL     OW56120   4.272   3.929   8.347
18038SOL    HW156121   4.280   3.940   8.444
18038SOL    HW256122   4.257   4.019   8.316
18039SOL     OW56123   4.693   5.158   7.949
18039SOL    HW156124   4.649   5.216   7.884
18039SOL    HW256125   4.753   5.218   7.993
18040SOL     OW56126   4.073   5.541   8.310
18040SOL    HW156127   4.127   5.462   8.328
18040SOL    HW256128   4.136   5.614   8.318
18041SOL     OW56129   5.525   4.792   8.339
18041SOL    HW156130   5.479   4.783   8.254
18041SOL    HW256131   5.449   4.799   8.401
18042SOL     OW56132   4.947   5.290   8.941
18042SOL    HW156133   4.929   5.224   9.010
18042SOL    HW256134   4.904   5.247   8.865
18043SOL     OW56135   4.039   4.664   7.696
18043SOL    HW156136   4.113   4.704   7.648
18043SOL    HW256137   4.009   4.597   7.634
18044SOL     OW56138   5.199   4.473   8.159
18044SOL    HW156139   5.198   4.449   8.253
18044SOL    HW256140   5.276   4.533   8.154
18045SOL     OW56141   4.185   4.996   9.175
18045SOL    HW156142   4.141   4.995   9.087
18045SOL    HW256143   4.109   5.010   9.234
18046SOL     OW56144   4.836   5.472   7.667
18046SOL    HW156145   4.785   5.415   7.726
18046SOL    HW256146   4.846   5.418   7.586
18047SOL     OW56147   3.896   4.011   8.944
18047SOL    HW156148   3.824   4.070   8.971
18047SOL    HW256149   3.872   3.927   8.987
18048SOL     OW56150   5.351   5.090   7.526
18048SOL    HW156151   5.310   5.174   7.500
18048SOL    HW256152   5.281   5.025   7.503
18049SOL     OW56153   4.177   5.460   7.764
18049SOL    HW156154   4.227   5.509   7.832
18049SOL    HW256155   4.249   5.425   7.708
18050SOL     OW56156   5.131   3.847   7.901
18050SOL    HW156157   5.098   3.811   7.816
18050SOL    HW256158   5.225   3.854   7.883
18051SOL     OW56159   3.971   5.520   8.678
18051SOL    HW156160   4.021   5.448   8.719
18051SOL    HW256161   3.957   5.487   8.588
18052SOL     OW56162   4.692   5.383   8.361
18052SOL    HW156163   4.779   5.368   8.319
18052SOL    HW256164   4.632   5.360   8.286
18053SOL     OW56165   4.124   4.409   7.914
18053SOL    HW156166   4.132   4.313   7.935
18053SOL    HW256167   4.028   4.423   7.926
18054SOL     OW56168   5.268   3.985   9.181
18054SOL    HW156169   5.265   3.981   9.280
18054SOL    HW256170   5.201   3.920   9.157
18055SOL     OW56171   4.349   3.852   7.549
18055SOL    HW156172   4.429   3.803   7.566
18055SOL    HW256173   4.307   3.799   7.478
18056SOL     OW56174   4.491   3.984   9.180
18056SOL    HW156175   4.573   3.935   9.198
18056SOL    HW256176   4.440   3.967   9.261
18057SOL     OW56177   4.618   5.269   8.641
18057SOL    HW156178   4.602   5.229   8.553
18057SOL    HW256179   4.674   5.202   8.685
18058SOL     OW56180   5.062   4.309   8.869
18058SOL    HW156181   5.092   4.277   8.956
18058SOL    HW256182   5.108   4.394   8.860
18059SOL     OW56183   4.532   5.131   8.372
18059SOL    HW156184   4.621   5.125   8.332
18059SOL    HW256185   4.475   5.140   8.295
18060SOL     OW56186   4.667   4.245   8.352
18060SOL    HW156187   4.642   4.235   8.257
18060SOL    HW256188   4.686   4.153   8.375
18061SOL     OW56189   4.277   3.769   7.954
18061SOL    HW156190   4.198   3.777   8.011
18061SOL    HW256191   4.268   3.848   7.897
18062SOL     OW56192   5.169   4.905   7.474
18062SOL    HW156193   5.173   4.823   7.524
18062SOL    HW256194   5.084   4.945   7.503
18063SOL     OW56195   4.003   3.764   7.636
18063SOL    HW156196   4.061   3.838   7.613
18063SOL    HW256197   4.067   3.702   7.677
18064SOL     OW56198   4.658   3.974   7.930
18064SOL    HW156199   4.635   4.025   7.851
18064SOL    HW256200   4.754   3.991   7.936
18065SOL     OW56201   4.812   4.399   8.921
18065SOL    HW156202   4.751   4.324   8.916
18065SOL    HW256203   4.900   4.358   8.909
18066SOL     OW56204   4.930   5.330   8.260
18066SOL    HW156205   4.940   5.350   8.164
18066SOL    HW256206   5.023   5.325   8.285
18067SOL     OW56207   4.200   4.889   8.194
18067SOL    HW156208   4.127   4.854   8.249
18067SOL    HW256209   4.164   4.870   8.104
18068SOL     OW56210   4.951   5.570   8.077
18068SOL    HW156211   4.991   5.491   8.033
18068SOL    HW256212   5.009   5.640   8.044
18069SOL     OW56213   4.773   4.278   7.445
18069SOL    HW156214   4.723   4.360   7.425
18069SOL    HW256215   4.853   4.312   7.486
18070SOL     OW56216   3.791   4.279   8.849
18070SOL    HW156217   3.885   4.268   8.827
18070SOL    HW256218   3.793   4.360   8.903
18071SOL     OW56219   4.292   3.951   8.616
18071SOL    HW156220   4.337   3.880   8.664
18071SOL    HW256221   4.200   3.940   8.648
18072SOL     OW56222   4.604   4.178   8.107
18072SOL    HW156223   4.569   4.230   8.034
18072SOL    HW256224   4.614   4.091   8.066
18073SOL     OW56225   4.763   3.787   8.218
18073SOL    HW156226   4.708   3.780   8.138
18073SOL    HW256227   4.734   3.708   8.269
18074SOL     OW56228   5.132   4.895   8.330
18074SOL    HW156229   5.061   4.829   8.339
18074SOL    HW256230   5.137   4.904   8.233
18075SOL     OW56231   5.236   4.285   8.406
18075SOL    HW156232   5.168   4.220   8.428
18075SOL    HW256233   5.277   4.303   8.492
18076SOL     OW56234   5.561   4.541   7.838
18076SOL    HW156235   5.625   4.487   7.888
18076SOL    HW256236   5.535   4.478   7.767
18077SOL     OW56237   4.210   5.135   7.569
18077SOL    HW156238   4.134   5.131   7.630
18077SOL    HW256239   4.169   5.100   7.488
18078SOL     OW56240   5.419   4.991   8.110
18078SOL    HW156241   5.515   5.005   8.099
18078SOL    HW256242   5.382   5.081   8.118
18079SOL     OW56243   5.117   4.310   7.519
18079SOL    HW156244   5.065   4.283   7.598
18079SOL    HW256245   5.197   4.256   7.530
18080SOL     OW56246   4.243   3.961   7.773
18080SOL    HW156247   4.282   3.925   7.690
18080SOL    HW256248   4.217   4.050   7.742
18081SOL     OW56249   5.457   4.957   9.023
18081SOL    HW156250   5.540   4.908   9.034
18081SOL    HW256251   5.488   5.049   9.034
18082SOL     OW56252   4.788   5.108   8.802
18082SOL    HW156253   4.711   5.060   8.838
18082SOL    HW256254   4.862   5.050   8.831
18083SOL     OW56255   5.324   5.329   9.092
18083SOL    HW156256   5.337   5.362   9.001
18083SOL    HW256257   5.391   5.259   9.100
18084SOL     OW56258   4.855   4.975   8.549
18084SOL    HW156259   4.777   4.971   8.605
18084SOL    HW256260   4.819   5.007   8.465
18085SOL     OW56261   5.327   4.832   8.521
18085SOL    HW156262   5.325   4.891   8.599
18085SOL    HW256263   5.261   4.873   8.462
18086SOL     OW56264   4.641   3.817   8.845
18086SOL    HW156265   4.671   3.794   8.755
18086SOL    HW256266   4.718   3.863   8.881
18087SOL     OW56267   4.712   4.843   9.195
18087SOL    HW156268   4.617   4.852   9.211
18087SOL    HW256269   4.716   4.770   9.130
18088SOL     OW56270   4.436   4.780   7.803
18088SOL    HW156271   4.427   4.766   7.898
18088SOL    HW256272   4.508   4.717   7.780
18089SOL     OW56273   4.148   4.532   8.715
18089SOL    HW156274   4.220   4.528   8.781
18089SOL    HW256275   4.104   4.446   8.727
18090SOL     OW56276   4.996   4.108   8.710
18090SOL    HW156277   5.021   4.186   8.764
18090SOL    HW256278   4.904   4.127   8.686
18091SOL     OW56279   3.791   5.291   8.786
18091SOL    HW156280   3.781   5.376   8.740
18091SOL    HW256281   3.887   5.284   8.795
18092SOL     OW56282   4.093   4.826   7.953
18092SOL    HW156283   4.094   4.891   7.882
18092SOL    HW256284   4.090   4.744   7.903
18093SOL     OW56285   4.258   4.268   8.294
18093SOL    HW156286   4.282   4.328   8.220
18093SOL    HW256287   4.332   4.283   8.354
18094SOL     OW56288   4.945   5.045   7.853
18094SOL    HW156289   4.987   5.128   7.886
18094SOL    HW256290   4.851   5.062   7.870
18095SOL     OW56291   5.025   5.205   8.612
18095SOL    HW156292   5.079   5.188   8.691
18095SOL    HW256293   4.963   5.129   8.611
18096SOL     OW56294   5.314   4.336   7.931
18096SOL    HW156295   5.256   4.387   7.990
18096SOL    HW256296   5.337   4.402   7.864
18097SOL     OW56297   4.064   5.246   8.776
18097SOL    HW156298   4.052   5.207   8.687
18097SOL    HW256299   4.158   5.270   8.771
18098SOL     OW56300   4.167   4.446   9.070
18098SOL    HW156301   4.225   4.488   9.003
18098SOL    HW256302   4.197   4.355   9.068
18099SOL     OW56303   5.346   4.501   9.130
18099SOL    HW156304   5.257   4.540   9.129
18099SOL    HW256305   5.387   4.542   9.052
18100SOL     OW56306   4.722   3.847   9.215
18100SOL    HW156307   4.773   3.922   9.180
18100SOL    HW256308   4.767   3.773   9.174
18101SOL     OW56309   4.227   3.734   9.207
18101SOL    HW156310   4.181   3.681   9.140
18101SOL    HW256311   4.166   3.811   9.213
18102SOL     OW56312   4.294   4.611   8.496
18102SOL    HW156313   4.334   4.699   8.506
18102SOL    HW256314   4.244   4.599   8.579
18103SOL     OW56315   5.076   4.584   8.473
18103SOL    HW156316   4.999   4.550   8.426
18103SOL    HW256317   5.117   4.503   8.505
18104SOL     OW56318   4.947   4.234   7.719
18104SOL    HW156319   4.943   4.157   7.778
18104SOL    HW256320   4.884   4.295   7.761
18105SOL     OW56321   4.035   3.920   8.703
18105SOL    HW156322   3.983   3.947   8.780
18105SOL    HW256323   4.009   3.826   8.694
18106SOL     OW56324   3.759   5.026   8.733
18106SOL    HW156325   3.786   4.970   8.809
18106SOL    HW256326   3.767   5.117   8.767
18107SOL     OW56327   4.452   4.382   8.510
18107SOL    HW156328   4.523   4.374   8.445
18107SOL    HW256329   4.409   4.466   8.486
18108SOL     OW56330   5.488   4.676   9.292
18108SOL    HW156331   5.446   4.612   9.232
18108SOL    HW256332   5.418   4.686   9.359
18109SOL     OW56333   4.022   3.784   8.060
18109SOL    HW156334   3.997   3.876   8.083
18109SOL    HW256335   4.029   3.743   8.148
18110SOL     OW56336   5.311   4.101   7.804
18110SOL    HW156337   5.353   4.048   7.872
18110SOL    HW256338   5.304   4.188   7.849
18111SOL     OW56339   4.780   4.480   8.424
18111SOL    HW156340   4.759   4.494   8.518
18111SOL    HW256341   4.751   4.387   8.411
18112SOL     OW56342   4.703   5.286   9.156
18112SOL    HW156343   4.694   5.338   9.074
18112SOL    HW256344   4.748   5.205   9.124
18113SOL     OW56345   5.576   5.219   9.061
18113SOL    HW156346   5.563   5.315   9.059
18113SOL    HW256347   5.663   5.214   9.104
18114SOL     OW56348   4.082   4.625   9.240
18114SOL    HW156349   4.162   4.638   9.293
18114SOL    HW256350   4.106   4.548   9.185
18115SOL     OW56351   5.230   3.973   7.572
18115SOL    HW156352   5.165   3.912   7.609
18115SOL    HW256353   5.266   4.017   7.651
18116SOL     OW56354   5.023   4.561   7.469
18116SOL    HW156355   5.063   4.473   7.477
18116SOL    HW256356   5.045   4.584   7.376
18117SOL     OW56357   4.790   5.086   8.301
18117SOL    HW156358   4.796   5.011   8.238
18117SOL    HW256359   4.852   5.152   8.265
18118SOL     OW56360   4.007   4.539   8.453
18118SOL    HW156361   4.100   4.558   8.434
18118SOL    HW256362   4.009   4.442   8.467
18119SOL     OW56363   4.039   4.264   8.449
18119SOL    HW156364   4.011   4.172   8.436
18119SOL    HW256365   4.108   4.273   8.379
18120SOL     OW56366   4.875   4.082   9.146
18120SOL    HW156367   4.829   4.140   9.210
18120SOL    HW256368   4.964   4.122   9.147
18121SOL     OW56369   4.891   3.910   8.938
18121SOL    HW156370   4.891   3.979   9.007
18121SOL    HW256371   4.931   3.956   8.863
18122SOL     OW56372   3.740   5.047   7.648
18122SOL    HW156373   3.653   5.067   7.607
18122SOL    HW256374   3.731   4.954   7.674
18123SOL     OW56375   3.823   5.505   8.402
18123SOL    HW156376   3.795   5.432   8.343
18123SOL    HW256377   3.913   5.525   8.367
18124SOL     OW56378   4.215   5.308   8.385
18124SOL    HW156379   4.294   5.352   8.420
18124SOL    HW256380   4.252   5.253   8.313
18125SOL     OW56381   4.704   4.508   8.686
18125SOL    HW156382   4.757   4.471   8.759
18125SOL    HW256383   4.617   4.472   8.707
18126SOL     OW56384   3.749   4.244   8.562
18126SOL    HW156385   3.827   4.236   8.505
18126SOL    HW256386   3.788   4.259   8.649
18127SOL     OW56387   3.938   4.242   9.164
18127SOL    HW156388   3.998   4.202   9.098
18127SOL    HW256389   3.890   4.308   9.110
18128SOL     OW56390   5.111   4.645   9.098
18128SOL    HW156391   5.138   4.738   9.097
18128SOL    HW256392   5.106   4.623   9.003
18129SOL     OW56393   4.521   4.280   7.848
18129SOL    HW156394   4.535   4.227   7.767
18129SOL    HW256395   4.449   4.340   7.819
18130SOL     OW56396   5.366   4.336   8.642
18130SOL    HW156397   5.344   4.273   8.712
18130SOL    HW256398   5.452   4.304   8.611
18131SOL     OW56399   3.976   5.265   9.178
18131SOL    HW156400   3.951   5.340   9.234
18131SOL    HW256401   3.969   5.190   9.239
18132SOL     OW56402   4.413   4.196   8.709
18132SOL    HW156403   4.364   4.121   8.671
18132SOL    HW256404   4.409   4.264   8.638
18133SOL     OW56405   4.646   5.411   8.921
18133SOL    HW156406   4.639   5.369   8.835
18133SOL    HW256407   4.649   5.507   8.901
18134SOL     OW56408   4.172   4.199   7.657
18134SOL    HW156409   4.234   4.272   7.654
18134SOL    HW256410   4.086   4.245   7.650
18135SOL     OW56411   3.834   4.854   8.925
18135SOL    HW156412   3.850   4.802   9.007
18135SOL    HW256413   3.856   4.790   8.854
18136SOL     OW56414   5.035   4.772   8.675
18136SOL    HW156415   5.055   4.711   8.601
18136SOL    HW256416   4.978   4.837   8.631
18137SOL     OW56417   5.036   4.569   7.744
18137SOL    HW156418   4.949   4.547   7.781
18137SOL    HW256419   5.017   4.578   7.649
18138SOL     OW56420   5.492   5.468   8.588
18138SOL    HW156421   5.561   5.489   8.521
18138SOL    HW256422   5.471   5.375   8.565
18139SOL     OW56423   4.942   5.459   8.560
18139SOL    HW156424   5.018   5.497   8.513
18139SOL    HW256425   4.972   5.367   8.574
18140SOL     OW56426   3.829   4.975   8.479
18140SOL    HW156427   3.794   4.989   8.569
18140SOL    HW256428   3.756   4.929   8.435
18141SOL     OW56429   4.418   5.373   9.183
18141SOL    HW156430   4.358   5.449   9.169
18141SOL    HW256431   4.495   5.398   9.129
18142SOL     OW56432   5.482   3.852   8.006
18142SOL    HW156433   5.512   3.844   7.914
18142SOL    HW256434   5.452   3.760   8.026
18143SOL     OW56435   3.875   5.511   9.281
18143SOL    HW156436   3.836   5.446   9.343
18143SOL    HW256437   3.876   5.591   9.335
18144SOL     OW56438   4.970   4.648   8.111
18144SOL    HW156439   5.051   4.596   8.122
18144SOL    HW256440   5.006   4.728   8.066
18145SOL     OW56441   4.512   4.985   8.861
18145SOL    HW156442   4.492   5.035   8.942
18145SOL    HW256443   4.430   4.997   8.811
18146SOL     OW56444   4.385   5.331   7.628
18146SOL    HW156445   4.410   5.355   7.536
18146SOL    HW256446   4.325   5.255   7.612
18147SOL     OW56447   5.361   5.439   8.839
18147SOL    HW156448   5.394   5.454   8.749
18147SOL    HW256449   5.343   5.531   8.870
18148SOL     OW56450   5.584   3.893   8.372
18148SOL    HW156451   5.604   3.797   8.376
18148SOL    HW256452   5.487   3.898   8.380
18149SOL     OW56453   3.965   4.027   8.158
18149SOL    HW156454   3.882   4.075   8.139
18149SOL    HW256455   3.975   4.039   8.253
18150SOL     OW56456   4.942   5.309   7.473
18150SOL    HW156457   4.948   5.215   7.492
18150SOL    HW256458   4.936   5.311   7.376
18151SOL     OW56459   4.550   4.725   8.827
18151SOL    HW156460   4.585   4.720   8.737
18151SOL    HW256461   4.536   4.821   8.839
18152SOL     OW56462   4.642   4.626   7.733
18152SOL    HW156463   4.706   4.668   7.671
18152SOL    HW256464   4.687   4.544   7.758
18153SOL     OW56465   5.263   5.366   7.479
18153SOL    HW156466   5.167   5.359   7.489
18153SOL    HW256467   5.274   5.359   7.381
18154SOL     OW56468   4.069   4.996   8.937
18154SOL    HW156469   4.055   5.069   8.875
18154SOL    HW256470   3.985   4.947   8.932
18155SOL     OW56471   5.332   5.023   8.729
18155SOL    HW156472   5.369   4.995   8.814
18155SOL    HW256473   5.266   5.089   8.759
18156SOL     OW56474   4.773   4.843   8.178
18156SOL    HW156475   4.692   4.796   8.202
18156SOL    HW256476   4.828   4.772   8.139
18157SOL     OW56477   4.760   3.954   8.437
18157SOL    HW156478   4.750   3.905   8.353
18157SOL    HW256479   4.756   3.881   8.502
18158SOL     OW56480   4.335   5.217   7.938
18158SOL    HW156481   4.392   5.168   7.876
18158SOL    HW256482   4.276   5.262   7.877
18159SOL     OW56483   5.435   4.091   8.825
18159SOL    HW156484   5.497   4.167   8.826
18159SOL    HW256485   5.481   4.029   8.766
18160SOL     OW56486   3.985   5.107   7.731
18160SOL    HW156487   3.891   5.104   7.704
18160SOL    HW256488   3.976   5.126   7.827
18161SOL     OW56489   3.855   4.754   9.169
18161SOL    HW156490   3.779   4.725   9.222
18161SOL    HW256491   3.931   4.708   9.211
18162SOL     OW56492   4.391   3.902   8.938
18162SOL    HW156493   4.479   3.875   8.906
18162SOL    HW256494   4.413   3.941   9.025
18163SOL     OW56495   3.821   4.072   7.485
18163SOL    HW156496   3.731   4.060   7.454
18163SOL    HW256497   3.856   4.137   7.421
18164SOL     OW56498   5.174   4.571   8.829
18164SOL    HW156499   5.128   4.640   8.778
18164SOL    HW256500   5.266   4.587   8.806
18165SOL     OW56501   3.768   3.887   7.739
18165SOL    HW156502   3.765   3.975   7.701
18165SOL    HW256503   3.850   3.852   7.700
18166SOL     OW56504   4.966   5.040   7.578
18166SOL    HW156505   4.874   5.020   7.553
18166SOL    HW256506   4.962   5.051   7.675
18167SOL     OW56507   4.351   4.533   8.885
18167SOL    HW156508   4.405   4.613   8.879
18167SOL    HW256509   4.421   4.465   8.888
18168SOL     OW56510   5.229   5.526   8.417
18168SOL    HW156511   5.263   5.536   8.327
18168SOL    HW256512   5.308   5.501   8.467
18169SOL     OW56513   4.454   4.272   9.139
18169SOL    HW156514   4.491   4.337   9.201
18169SOL    HW256515   4.461   4.189   9.188
18170SOL     OW56516   5.192   4.908   9.080
18170SOL    HW156517   5.182   4.910   9.178
18170SOL    HW256518   5.287   4.929   9.070
18171SOL     OW56519   4.110   5.453   9.012
18171SOL    HW156520   4.021   5.494   9.003
18171SOL    HW256521   4.085   5.364   9.042
18172SOL     OW56522   5.417   4.600   8.684
18172SOL    HW156523   5.398   4.511   8.649
18172SOL    HW256524   5.387   4.660   8.613
18173SOL     OW56525   4.930   4.040   7.914
18173SOL    HW156526   5.000   3.973   7.916
18173SOL    HW256527   4.963   4.100   7.985
18174SOL     OW56528   4.322   4.457   8.110
18174SOL    HW156529   4.359   4.547   8.100
18174SOL    HW256530   4.256   4.453   8.039
18175SOL     OW56531   5.493   4.101   9.089
18175SOL    HW156532   5.463   4.106   8.997
18175SOL    HW256533   5.417   4.057   9.132
18176SOL     OW56534   5.458   4.664   8.948
18176SOL    HW156535   5.468   4.759   8.942
18176SOL    HW256536   5.467   4.635   8.855
18177SOL     OW56537   4.583   5.095   7.485
18177SOL    HW156538   4.525   5.106   7.562
18177SOL    HW256539   4.577   5.178   7.437
18178SOL     OW56540   4.414   5.530   8.402
18178SOL    HW156541   4.379   5.617   8.376
18178SOL    HW256542   4.470   5.508   8.326
18179SOL     OW56543   4.594   4.665   8.317
18179SOL    HW156544   4.656   4.598   8.350
18179SOL    HW256545   4.586   4.726   8.392
18180SOL     OW56546   4.828   4.732   7.568
18180SOL    HW156547   4.783   4.777   7.493
18180SOL    HW256548   4.887   4.672   7.518
18181SOL     OW56549   5.574   5.286   8.309
18181SOL    HW156550   5.498   5.281   8.250
18181SOL    HW256551   5.602   5.194   8.316
18182SOL     OW56552   3.964   5.039   9.323
18182SOL    HW156553   3.914   4.978   9.266
18182SOL    HW256554   3.902   5.046   9.398
18183SOL     OW56555   3.814   4.967   8.123
18183SOL    HW156556   3.847   4.904   8.189
18183SOL    HW256557   3.880   4.958   8.052
18184SOL     OW56558   4.397   5.124   9.066
18184SOL    HW156559   4.319   5.076   9.099
18184SOL    HW256560   4.388   5.211   9.109
18185SOL     OW56561   5.549   3.892   8.659
18185SOL    HW156562   5.547   3.796   8.667
18185SOL    HW256563   5.562   3.905   8.564
18186SOL     OW56564   4.157   4.144   7.985
18186SOL    HW156565   4.200   4.076   7.932
18186SOL    HW256566   4.116   4.095   8.058
18187SOL     OW56567   5.429   5.217   8.568
18187SOL    HW156568   5.375   5.195   8.491
18187SOL    HW256569   5.402   5.146   8.629
18188SOL     OW56570   4.048   4.255   8.734
18188SOL    HW156571   4.119   4.215   8.787
18188SOL    HW256572   4.067   4.226   8.644
18189SOL     OW56573   4.532   5.330   8.140
18189SOL    HW156574   4.552   5.352   8.048
18189SOL    HW256575   4.454   5.273   8.131
18190SOL     OW56576   5.161   3.969   8.553
18190SOL    HW156577   5.185   3.888   8.599
18190SOL    HW256578   5.106   4.016   8.619
18191SOL     OW56579   4.745   3.725   8.605
18191SOL    HW156580   4.688   3.654   8.572
18191SOL    HW256581   4.834   3.684   8.598
18192SOL     OW56582   4.484   5.054   7.770
18192SOL    HW156583   4.456   4.961   7.757
18192SOL    HW256584   4.573   5.042   7.805
18193SOL     OW56585   4.325   5.290   8.715
18193SOL    HW156586   4.325   5.375   8.763
18193SOL    HW256587   4.418   5.281   8.693
18194SOL     OW56588   5.051   3.762   7.655
18194SOL    HW156589   5.055   3.740   7.561
18194SOL    HW256590   4.965   3.719   7.679
18195SOL     OW56591   5.017   4.202   8.116
18195SOL    HW156592   4.952   4.275   8.113
18195SOL    HW256593   5.000   4.161   8.203
18196SOL     OW56594   5.324   3.932   8.323
18196SOL    HW156595   5.254   3.933   8.391
18196SOL    HW256596   5.300   4.010   8.271
18197SOL     OW56597   3.762   4.790   7.765
18197SOL    HW156598   3.856   4.787   7.741
18197SOL    HW256599   3.744   4.695   7.784
18198SOL     OW56600   4.603   5.362   7.796
18198SOL    HW156601   4.532   5.352   7.729
18198SOL    HW256602   4.587   5.451   7.833
18199SOL     OW56603   3.960   4.363   9.441
18199SOL    HW156604   3.872   4.341   9.474
18199SOL    HW256605   3.956   4.342   9.347
18200SOL     OW56606   3.948   4.008  10.292
18200SOL    HW156607   3.972   3.981  10.383
18200SOL    HW256608   3.861   3.965  10.282
18201SOL     OW56609   3.725   4.134   9.939
18201SOL    HW156610   3.644   4.150   9.990
18201SOL    HW256611   3.702   4.052   9.893
18202SOL     OW56612   5.264   5.250  10.029
18202SOL    HW156613   5.236   5.213  10.115
18202SOL    HW256614   5.188   5.233   9.970
18203SOL     OW56615   4.852   4.414  10.007
18203SOL    HW156616   4.889   4.503   9.990
18203SOL    HW256617   4.803   4.430  10.089
18204SOL     OW56618   5.495   4.327   9.544
18204SOL    HW156619   5.474   4.322   9.449
18204SOL    HW256620   5.447   4.251   9.580
18205SOL     OW56621   4.467   4.872  10.331
18205SOL    HW156622   4.400   4.924  10.375
18205SOL    HW256623   4.508   4.940  10.274
18206SOL     OW56624   4.549   4.513   0.004
18206SOL    HW156625   4.579   4.566   0.078
18206SOL    HW256626   4.601   4.550  11.031
18207SOL     OW56627   4.418   4.749   9.969
18207SOL    HW156628   4.478   4.721  10.041
18207SOL    HW256629   4.348   4.797  10.016
18208SOL     OW56630   4.044   5.157  10.390
18208SOL    HW156631   3.966   5.118  10.347
18208SOL    HW256632   4.087   5.208  10.318
18209SOL     OW56633   5.196   5.217  10.665
18209SOL    HW156634   5.251   5.298  10.670
18209SOL    HW256635   5.135   5.231  10.738
18210SOL     OW56636   4.183   4.112  10.768
18210SOL    HW156637   4.260   4.054  10.779
18210SOL    HW256638   4.111   4.060  10.805
18211SOL     OW56639   5.343   4.163  10.045
18211SOL    HW156640   5.285   4.210   9.984
18211SOL    HW256641   5.334   4.216  10.126
18212SOL     OW56642   3.948   5.426   9.792
18212SOL    HW156643   3.967   5.508   9.842
18212SOL    HW256644   3.985   5.448   9.705
18213SOL     OW56645   3.968   5.154   9.858
18213SOL    HW156646   3.970   5.252   9.856
18213SOL    HW256647   3.896   5.135   9.919
18214SOL     OW56648   3.995   4.801  10.191
18214SOL    HW156649   3.992   4.720  10.244
18214SOL    HW256650   3.939   4.863  10.242
18215SOL     OW56651   4.317   5.518  10.720
18215SOL    HW156652   4.250   5.499  10.788
18215SOL    HW256653   4.343   5.609  10.743
18216SOL     OW56654   4.291   4.722   9.437
18216SOL    HW156655   4.344   4.772   9.371
18216SOL    HW256656   4.337   4.746   9.520
18217SOL     OW56657   5.310   3.831  10.779
18217SOL    HW156658   5.313   3.922  10.745
18217SOL    HW256659   5.307   3.844  10.874
18218SOL     OW56660   3.840   4.378   9.872
18218SOL    HW156661   3.810   4.286   9.888
18218SOL    HW256662   3.829   4.418   9.961
18219SOL     OW56663   5.574   5.458   9.665
18219SOL    HW156664   5.639   5.442   9.735
18219SOL    HW256665   5.594   5.551   9.641
18220SOL     OW56666   3.794   5.305   9.434
18220SOL    HW156667   3.767   5.215   9.458
18220SOL    HW256668   3.756   5.358   9.507
18221SOL     OW56669   5.410   4.628   9.916
18221SOL    HW156670   5.483   4.592   9.865
18221SOL    HW256671   5.376   4.695   9.854
18222SOL     OW56672   5.370   4.850   9.747
18222SOL    HW156673   5.463   4.847   9.718
18222SOL    HW256674   5.374   4.913   9.821
18223SOL     OW56675   3.840   4.472  10.905
18223SOL    HW156676   3.931   4.458  10.934
18223SOL    HW256677   3.825   4.563  10.937
18224SOL     OW56678   4.306   5.131  10.063
18224SOL    HW156679   4.267   5.041  10.071
18224SOL    HW256680   4.293   5.143   9.966
18225SOL     OW56681   5.019   4.969  10.739
18225SOL    HW156682   5.045   4.902  10.672
18225SOL    HW256683   5.067   4.940  10.818
18226SOL     OW56684   4.557   3.720   9.819
18226SOL    HW156685   4.586   3.813   9.812
18226SOL    HW256686   4.461   3.730   9.833
18227SOL     OW56687   3.927   4.690  10.611
18227SOL    HW156688   4.011   4.649  10.584
18227SOL    HW256689   3.863   4.635  10.565
18228SOL     OW56690   5.271   4.685   9.490
18228SOL    HW156691   5.195   4.637   9.526
18228SOL    HW256692   5.305   4.732   9.567
18229SOL     OW56693   4.935   5.541  10.905
18229SOL    HW156694   4.918   5.607  10.836
18229SOL    HW256695   4.937   5.458  10.854
18230SOL     OW56696   4.067   3.966  11.101
18230SOL    HW156697   4.127   4.026   0.046
18230SOL    HW256698   3.982   4.012   0.012
18231SOL     OW56699   5.192   5.135  10.266
18231SOL    HW156700   5.130   5.155  10.338
18231SOL    HW256701   5.168   5.043  10.243
18232SOL     OW56702   5.376   5.460   9.906
18232SOL    HW156703   5.355   5.421   9.820
18232SOL    HW256704   5.348   5.388   9.966
18233SOL     OW56705   4.309   4.431   9.585
18233SOL    HW156706   4.314   4.517   9.542
18233SOL    HW256707   4.235   4.444   9.648
18234SOL     OW56708   4.998   4.088  10.251
18234SOL    HW156709   4.910   4.046  10.260
18234SOL    HW256710   5.054   4.031  10.307
18235SOL     OW56711   5.294   5.370   9.624
18235SOL    HW156712   5.389   5.386   9.624
18235SOL    HW256713   5.279   5.361   9.528
18236SOL     OW56714   4.533   4.346  10.780
18236SOL    HW156715   4.509   4.313  10.869
18236SOL    HW256716   4.491   4.281  10.721
18237SOL     OW56717   4.676   4.596  10.884
18237SOL    HW156718   4.726   4.524  10.840
18237SOL    HW256719   4.631   4.640  10.810
18238SOL     OW56720   4.688   4.128  10.557
18238SOL    HW156721   4.598   4.141  10.588
18238SOL    HW256722   4.676   4.070  10.481
18239SOL     OW56723   4.769   4.403   9.717
18239SOL    HW156724   4.786   4.420   9.811
18239SOL    HW256725   4.681   4.359   9.720
18240SOL     OW56726   3.819   4.530  10.106
18240SOL    HW156727   3.894   4.533  10.167
18240SOL    HW256728   3.778   4.617  10.120
18241SOL     OW56729   3.838   5.563  10.871
18241SOL    HW156730   3.829   5.522  10.959
18241SOL    HW256731   3.747   5.575  10.843
18242SOL     OW56732   4.604   4.089   9.523
18242SOL    HW156733   4.639   4.142   9.449
18242SOL    HW256734   4.619   4.001   9.489
18243SOL     OW56735   5.087   4.874   9.876
18243SOL    HW156736   5.164   4.866   9.819
18243SOL    HW256737   5.034   4.940   9.828
18244SOL     OW56738   4.278   3.906  10.204
18244SOL    HW156739   4.283   3.931  10.299
18244SOL    HW256740   4.264   3.991  10.161
18245SOL     OW56741   4.708   5.168   9.787
18245SOL    HW156742   4.668   5.235   9.729
18245SOL    HW256743   4.722   5.217   9.869
18246SOL     OW56744   4.075   5.534  10.163
18246SOL    HW156745   4.124   5.453  10.183
18246SOL    HW256746   4.141   5.604  10.173
18247SOL     OW56747   5.542   4.773  10.162
18247SOL    HW156748   5.477   4.751  10.094
18247SOL    HW256749   5.489   4.769  10.243
18248SOL     OW56750   4.952   5.289  10.796
18248SOL    HW156751   4.937   5.219  10.860
18248SOL    HW256752   4.906   5.255  10.719
18249SOL     OW56753   4.022   4.681   9.556
18249SOL    HW156754   4.111   4.691   9.520
18249SOL    HW256755   3.991   4.600   9.512
18250SOL     OW56756   5.202   4.482  10.032
18250SOL    HW156757   5.215   4.447  10.122
18250SOL    HW256758   5.285   4.529  10.016
18251SOL     OW56759   4.173   5.019  11.035
18251SOL    HW156760   4.156   5.008  10.940
18251SOL    HW256761   4.148   4.933  11.072
18252SOL     OW56762   4.831   5.493   9.553
18252SOL    HW156763   4.765   5.437   9.598
18252SOL    HW256764   4.850   5.443   9.472
18253SOL     OW56765   3.898   4.004  10.779
18253SOL    HW156766   3.836   4.069  10.814
18253SOL    HW256767   3.881   3.925  10.834
18254SOL     OW56768   5.341   5.091   9.400
18254SOL    HW156769   5.294   5.174   9.381
18254SOL    HW256770   5.278   5.022   9.371
18255SOL     OW56771   4.226   5.401   9.660
18255SOL    HW156772   4.232   5.484   9.711
18255SOL    HW256773   4.268   5.426   9.576
18256SOL     OW56774   5.122   3.831   9.738
18256SOL    HW156775   5.133   3.776   9.659
18256SOL    HW256776   5.214   3.852   9.761
18257SOL     OW56777   3.951   5.526  10.538
18257SOL    HW156778   4.033   5.489  10.573
18257SOL    HW256779   3.943   5.488  10.450
18258SOL     OW56780   4.685   5.424  10.195
18258SOL    HW156781   4.770   5.379  10.206
18258SOL    HW256782   4.644   5.371  10.124
18259SOL     OW56783   4.108   4.422   9.781
18259SOL    HW156784   4.133   4.328   9.798
18259SOL    HW256785   4.013   4.418   9.799
18260SOL     OW56786   4.361   3.853   9.405
18260SOL    HW156787   4.432   3.790   9.422
18260SOL    HW256788   4.306   3.802   9.340
18261SOL     OW56789   4.496   3.970  11.021
18261SOL    HW156790   4.570   3.948  11.079
18261SOL    HW256791   4.444   4.031  11.076
18262SOL     OW56792   4.613   5.256  10.520
18262SOL    HW156793   4.618   5.233  10.426
18262SOL    HW256794   4.688   5.207  10.558
18263SOL     OW56795   5.073   4.312  10.731
18263SOL    HW156796   5.124   4.305  10.812
18263SOL    HW256797   5.105   4.399  10.698
18264SOL     OW56798   4.514   5.129  10.244
18264SOL    HW156799   4.604   5.130  10.205
18264SOL    HW256800   4.458   5.123  10.165
18265SOL     OW56801   4.658   4.255  10.218
18265SOL    HW156802   4.635   4.241  10.123
18265SOL    HW256803   4.683   4.166  10.244
18266SOL     OW56804   4.283   3.770   9.817
18266SOL    HW156805   4.204   3.782   9.874
18266SOL    HW256806   4.275   3.846   9.757
18267SOL     OW56807   5.166   4.897   9.341
18267SOL    HW156808   5.192   4.820   9.396
18267SOL    HW256809   5.074   4.911   9.368
18268SOL     OW56810   4.005   3.766   9.503
18268SOL    HW156811   4.065   3.839   9.484
18268SOL    HW256812   4.065   3.703   9.546
18269SOL     OW56813   4.659   3.973   9.798
18269SOL    HW156814   4.633   4.025   9.720
18269SOL    HW256815   4.755   3.988   9.798
18270SOL     OW56816   4.822   4.407  10.751
18270SOL    HW156817   4.768   4.328  10.762
18270SOL    HW256818   4.913   4.373  10.757
18271SOL     OW56819   4.944   5.303  10.109
18271SOL    HW156820   4.951   5.359  10.030
18271SOL    HW256821   5.020   5.330  10.160
18272SOL     OW56822   4.197   4.886  10.045
18272SOL    HW156823   4.124   4.850  10.100
18272SOL    HW256824   4.162   4.863   9.955
18273SOL     OW56825   4.975   5.529   9.906
18273SOL    HW156826   5.027   5.592   9.852
18273SOL    HW256827   4.938   5.586   9.975
18274SOL     OW56828   4.781   4.253   9.331
18274SOL    HW156829   4.734   4.336   9.314
18274SOL    HW256830   4.849   4.278   9.395
18275SOL     OW56831   3.797   4.285  10.714
18275SOL    HW156832   3.890   4.273  10.691
18275SOL    HW256833   3.801   4.367  10.769
18276SOL     OW56834   4.294   3.957  10.476
18276SOL    HW156835   4.332   3.881  10.523
18276SOL    HW256836   4.202   3.953  10.507
18277SOL     OW56837   4.600   4.183   9.971
18277SOL    HW156838   4.547   4.231   9.907
18277SOL    HW256839   4.620   4.101   9.924
18278SOL     OW56840   4.788   3.782  10.084
18278SOL    HW156841   4.722   3.788  10.014
18278SOL    HW256842   4.750   3.711  10.140
18279SOL     OW56843   5.152   4.882  10.202
18279SOL    HW156844   5.088   4.812  10.218
18279SOL    HW256845   5.160   4.880  10.106
18280SOL     OW56846   5.231   4.305  10.272
18280SOL    HW156847   5.164   4.238  10.291
18280SOL    HW256848   5.276   4.315  10.357
18281SOL     OW56849   5.565   4.541   9.701
18281SOL    HW156850   5.623   4.487   9.759
18281SOL    HW256851   5.547   4.479   9.628
18282SOL     OW56852   5.395   5.004   9.972
18282SOL    HW156853   5.493   5.008   9.981
18282SOL    HW256854   5.366   5.092   9.999
18283SOL     OW56855   5.126   4.330   9.368
18283SOL    HW156856   5.088   4.295   9.452
18283SOL    HW256857   5.220   4.315   9.380
18284SOL     OW56858   4.244   3.957   9.626
18284SOL    HW156859   4.289   3.925   9.546
18284SOL    HW256860   4.214   4.045   9.595
18285SOL     OW56861   5.490   4.951  10.859
18285SOL    HW156862   5.578   4.928  10.891
18285SOL    HW256863   5.471   5.033  10.907
18286SOL     OW56864   4.788   5.094  10.666
18286SOL    HW156865   4.718   5.046  10.714
18286SOL    HW256866   4.867   5.040  10.689
18287SOL     OW56867   4.843   4.956  10.414
18287SOL    HW156868   4.768   4.965  10.474
18287SOL    HW256869   4.812   4.998  10.333
18288SOL     OW56870   5.350   4.814  10.385
18288SOL    HW156871   5.356   4.875  10.461
18288SOL    HW256872   5.282   4.857  10.332
18289SOL     OW56873   4.634   3.832  10.675
18289SOL    HW156874   4.672   3.797  10.592
18289SOL    HW256875   4.714   3.866  10.721
18290SOL     OW56876   4.436   4.782   9.668
18290SOL    HW156877   4.423   4.762   9.762
18290SOL    HW256878   4.509   4.721   9.644
18291SOL     OW56879   4.158   4.538  10.577
18291SOL    HW156880   4.228   4.537  10.645
18291SOL    HW256881   4.122   4.448  10.584
18292SOL     OW56882   4.986   4.101  10.589
18292SOL    HW156883   5.016   4.181  10.636
18292SOL    HW256884   4.905   4.131  10.545
18293SOL     OW56885   3.793   5.285  10.637
18293SOL    HW156886   3.754   5.369  10.610
18293SOL    HW256887   3.883   5.311  10.663
18294SOL     OW56888   4.091   4.814   9.807
18294SOL    HW156889   4.072   4.876   9.737
18294SOL    HW256890   4.076   4.730   9.763
18295SOL     OW56891   4.261   4.263  10.153
18295SOL    HW156892   4.285   4.329  10.084
18295SOL    HW256893   4.331   4.276  10.219
18296SOL     OW56894   4.947   5.063   9.704
18296SOL    HW156895   4.987   5.145   9.740
18296SOL    HW256896   4.854   5.073   9.734
18297SOL     OW56897   5.019   5.182  10.469
18297SOL    HW156898   5.079   5.187  10.546
18297SOL    HW256899   4.966   5.104  10.488
18298SOL     OW56900   5.304   4.328   9.788
18298SOL    HW156901   5.251   4.384   9.847
18298SOL    HW256902   5.337   4.392   9.724
18299SOL     OW56903   4.062   5.242  10.641
18299SOL    HW156904   4.031   5.228  10.549
18299SOL    HW256905   4.143   5.295  10.632
18300SOL     OW56906   4.177   4.436  10.937
18300SOL    HW156907   4.234   4.481  10.872
18300SOL    HW256908   4.202   4.343  10.924
18301SOL     OW56909   5.296   4.481  10.969
18301SOL    HW156910   5.293   4.530  11.053
18301SOL    HW256911   5.368   4.530  10.924
18302SOL     OW56912   4.279   4.605  10.333
18302SOL    HW156913   4.334   4.683  10.351
18302SOL    HW256914   4.247   4.581  10.422
18303SOL     OW56915   5.063   4.580  10.334
18303SOL    HW156916   4.992   4.540  10.282
18303SOL    HW256917   5.123   4.506  10.348
18304SOL     OW56918   4.951   4.246   9.572
18304SOL    HW156919   4.956   4.173   9.637
18304SOL    HW256920   4.885   4.303   9.615
18305SOL     OW56921   4.014   3.928  10.542
18305SOL    HW156922   3.975   3.960  10.626
18305SOL    HW256923   3.996   3.832  10.547
18306SOL     OW56924   3.786   4.999  10.595
18306SOL    HW156925   3.807   4.955  10.679
18306SOL    HW256926   3.768   5.091  10.621
18307SOL     OW56927   4.438   4.364  10.352
18307SOL    HW156928   4.519   4.343  10.301
18307SOL    HW256929   4.407   4.449  10.316
18308SOL     OW56930   4.035   3.791   9.923
18308SOL    HW156931   3.998   3.878   9.949
18308SOL    HW256932   4.040   3.745  10.009
18309SOL     OW56933   5.316   4.102   9.661
18309SOL    HW156934   5.349   4.036   9.723
18309SOL    HW256935   5.308   4.182   9.719
18310SOL     OW56936   4.769   4.488  10.272
18310SOL    HW156937   4.758   4.507  10.366
18310SOL    HW256938   4.741   4.394  10.265
18311SOL     OW56939   4.708   5.282  10.968
18311SOL    HW156940   4.699   5.346  10.894
18311SOL    HW256941   4.677   5.200  10.929
18312SOL     OW56942   5.571   5.235  10.910
18312SOL    HW156943   5.592   5.247  10.816
18312SOL    HW256944   5.659   5.239  10.952
18313SOL     OW56945   4.111   4.658  11.059
18313SOL    HW156946   4.178   4.664   0.027
18313SOL    HW256947   4.135   4.573  11.017
18314SOL     OW56948   5.226   3.978   9.443
18314SOL    HW156949   5.149   3.944   9.489
18314SOL    HW256950   5.271   4.028   9.515
18315SOL     OW56951   5.001   4.566   9.332
18315SOL    HW156952   5.042   4.479   9.348
18315SOL    HW256953   5.038   4.588   9.244
18316SOL     OW56954   4.778   5.088  10.173
18316SOL    HW156955   4.780   5.020  10.104
18316SOL    HW256956   4.849   5.150  10.146
18317SOL     OW56957   4.011   4.546  10.305
18317SOL    HW156958   4.107   4.560  10.297
18317SOL    HW256959   4.006   4.450  10.319
18318SOL     OW56960   4.040   4.261  10.306
18318SOL    HW156961   4.013   4.169  10.293
18318SOL    HW256962   4.115   4.267  10.242
18319SOL     OW56963   4.877   3.924  10.767
18319SOL    HW156964   4.907   3.975  10.843
18319SOL    HW256965   4.911   3.977  10.693
18320SOL     OW56966   3.742   5.040   9.505
18320SOL    HW156967   3.648   5.059   9.477
18320SOL    HW256968   3.733   4.949   9.539
18321SOL     OW56969   3.828   5.508  10.256
18321SOL    HW156970   3.799   5.428  10.206
18321SOL    HW256971   3.919   5.524  10.220
18322SOL     OW56972   4.214   5.305  10.250
18322SOL    HW156973   4.288   5.367  10.265
18322SOL    HW256974   4.253   5.246  10.182
18323SOL     OW56975   4.701   4.538  10.554
18323SOL    HW156976   4.768   4.497  10.613
18323SOL    HW256977   4.626   4.478  10.567
18324SOL     OW56978   3.754   4.241  10.433
18324SOL    HW156979   3.832   4.235  10.376
18324SOL    HW256980   3.791   4.224  10.520
18325SOL     OW56981   4.525   4.291   9.696
18325SOL    HW156982   4.536   4.225   9.625
18325SOL    HW256983   4.445   4.339   9.670
18326SOL     OW56984   5.376   4.342  10.509
18326SOL    HW156985   5.370   4.275  10.579
18326SOL    HW256986   5.456   4.313  10.461
18327SOL     OW56987   3.962   5.271  11.029
18327SOL    HW156988   3.908   5.304   0.003
18327SOL    HW256989   4.005   5.194  11.068
18328SOL     OW56990   4.419   4.202  10.579
18328SOL    HW156991   4.368   4.125  10.548
18328SOL    HW256992   4.411   4.264  10.505
18329SOL     OW56993   4.669   5.424  10.743
18329SOL    HW156994   4.638   5.389  10.658
18329SOL    HW256995   4.648   5.519  10.738
18330SOL     OW56996   4.168   4.196   9.514
18330SOL    HW156997   4.232   4.268   9.522
18330SOL    HW256998   4.085   4.245   9.499
18331SOL     OW56999   3.884   4.861  10.810
18331SOL    HW157000   3.872   4.800  10.885
18331SOL    HW257001   3.902   4.799  10.736
18332SOL     OW57002   5.030   4.776  10.542
18332SOL    HW157003   5.053   4.707  10.477
18332SOL    HW257004   4.967   4.831  10.493
18333SOL     OW57005   5.038   4.574   9.606
18333SOL    HW157006   4.962   4.536   9.651
18333SOL    HW257007   5.008   4.581   9.514
18334SOL     OW57008   5.481   5.474  10.431
18334SOL    HW157009   5.551   5.494  10.367
18334SOL    HW257010   5.475   5.377  10.424
18335SOL     OW57011   4.960   5.445  10.438
18335SOL    HW157012   5.047   5.474  10.407
18335SOL    HW257013   4.974   5.349  10.448
18336SOL     OW57014   3.839   4.978  10.335
18336SOL    HW157015   3.811   4.983  10.429
18336SOL    HW257016   3.757   4.950  10.292
18337SOL     OW57017   5.402   3.864   9.803
18337SOL    HW157018   5.481   3.850   9.750
18337SOL    HW257019   5.402   3.784   9.860
18338SOL     OW57020   5.076   5.298   9.789
18338SOL    HW157021   5.147   5.317   9.726
18338SOL    HW257022   5.045   5.387   9.813
18339SOL     OW57023   4.982   4.647   9.986
18339SOL    HW157024   5.062   4.593  10.000
18339SOL    HW257025   5.018   4.723   9.935
18340SOL     OW57026   4.551   4.990  10.759
18340SOL    HW157027   4.516   5.010  10.847
18340SOL    HW257028   4.502   5.054  10.706
18341SOL     OW57029   4.390   5.323   9.450
18341SOL    HW157030   4.398   5.350   9.356
18341SOL    HW257031   4.452   5.247   9.450
18342SOL     OW57032   5.351   5.437  10.679
18342SOL    HW157033   5.403   5.455  10.599
18342SOL    HW257034   5.339   5.526  10.717
18343SOL     OW57035   5.566   3.885  10.271
18343SOL    HW157036   5.588   3.795  10.241
18343SOL    HW257037   5.479   3.903  10.229
18344SOL     OW57038   3.972   4.042  10.011
18344SOL    HW157039   3.889   4.091   9.998
18344SOL    HW257040   3.982   4.042  10.107
18345SOL     OW57041   4.914   5.349   9.337
18345SOL    HW157042   4.918   5.253   9.355
18345SOL    HW257043   4.850   5.355   9.264
18346SOL     OW57044   4.537   4.718  10.684
18346SOL    HW157045   4.600   4.682  10.619
18346SOL    HW257046   4.573   4.804  10.709
18347SOL     OW57047   4.636   4.631   9.582
18347SOL    HW157048   4.713   4.673   9.539
18347SOL    HW257049   4.675   4.553   9.624
18348SOL     OW57050   5.261   5.355   9.349
18348SOL    HW157051   5.164   5.362   9.347
18348SOL    HW257052   5.283   5.354   9.253
18349SOL     OW57053   4.101   5.005  10.768
18349SOL    HW157054   4.057   5.090  10.754
18349SOL    HW257055   4.025   4.947  10.789
18350SOL     OW57056   5.343   5.006  10.583
18350SOL    HW157057   5.397   4.991  10.662
18350SOL    HW257058   5.280   5.074  10.615
18351SOL     OW57059   4.757   4.863  10.014
18351SOL    HW157060   4.698   4.796  10.052
18351SOL    HW257061   4.829   4.808   9.980
18352SOL     OW57062   4.754   3.961  10.297
18352SOL    HW157063   4.752   3.912  10.212
18352SOL    HW257064   4.750   3.887  10.361
18353SOL     OW57065   4.315   5.188   9.799
18353SOL    HW157066   4.389   5.170   9.739
18353SOL    HW257067   4.277   5.271   9.764
18354SOL     OW57068   5.431   4.107  10.696
18354SOL    HW157069   5.496   4.178  10.701
18354SOL    HW257070   5.474   4.046  10.631
18355SOL     OW57071   3.982   5.122   9.601
18355SOL    HW157072   3.891   5.095   9.580
18355SOL    HW257073   3.975   5.134   9.698
18356SOL     OW57074   3.849   4.717  11.037
18356SOL    HW157075   3.810   4.744   0.019
18356SOL    HW257076   3.942   4.697  11.061
18357SOL     OW57077   4.393   3.916  10.777
18357SOL    HW157078   4.479   3.901  10.733
18357SOL    HW257079   4.423   3.937  10.868
18358SOL     OW57080   3.830   4.060   9.322
18358SOL    HW157081   3.735   4.063   9.311
18358SOL    HW257082   3.859   4.138   9.270
18359SOL     OW57083   5.155   4.554  10.668
18359SOL    HW157084   5.108   4.638  10.656
18359SOL    HW257085   5.247   4.585  10.679
18360SOL     OW57086   3.770   3.886   9.604
18360SOL    HW157087   3.771   3.976   9.568
18360SOL    HW257088   3.853   3.850   9.567
18361SOL     OW57089   4.930   5.075   9.428
18361SOL    HW157090   4.864   5.005   9.442
18361SOL    HW257091   4.962   5.087   9.520
18362SOL     OW57092   4.351   4.543  10.757
18362SOL    HW157093   4.411   4.617  10.737
18362SOL    HW257094   4.416   4.471  10.769
18363SOL     OW57095   5.234   5.489  10.302
18363SOL    HW157096   5.269   5.524  10.220
18363SOL    HW257097   5.313   5.485  10.359
18364SOL     OW57098   4.451   4.275  11.034
18364SOL    HW157099   4.474   4.360  11.077
18364SOL    HW257100   4.527   4.220  11.054
18365SOL     OW57101   4.097   5.443  10.868
18365SOL    HW157102   4.024   5.505  10.853
18365SOL    HW257103   4.057   5.383  10.934
18366SOL     OW57104   5.412   4.615  10.580
18366SOL    HW157105   5.404   4.523  10.550
18366SOL    HW257106   5.387   4.666  10.502
18367SOL     OW57107   4.931   4.041   9.767
18367SOL    HW157108   4.995   3.969   9.757
18367SOL    HW257109   4.963   4.086   9.848
18368SOL     OW57110   4.328   4.464   9.959
18368SOL    HW157111   4.357   4.556   9.959
18368SOL    HW257112   4.252   4.466   9.899
18369SOL     OW57113   5.492   4.034  10.952
18369SOL    HW157114   5.458   4.059  10.863
18369SOL    HW257115   5.415   4.048  11.008
18370SOL     OW57116   5.480   4.662  10.830
18370SOL    HW157117   5.473   4.759  10.839
18370SOL    HW257118   5.461   4.649  10.734
18371SOL     OW57119   4.551   5.137   9.341
18371SOL    HW157120   4.623   5.109   9.398
18371SOL    HW257121   4.596   5.193   9.275
18372SOL     OW57122   4.389   5.508  10.253
18372SOL    HW157123   4.370   5.601  10.232
18372SOL    HW257124   4.480   5.498  10.223
18373SOL     OW57125   4.599   4.673  10.157
18373SOL    HW157126   4.655   4.602  10.193
18373SOL    HW257127   4.574   4.723  10.237
18374SOL     OW57128   4.826   4.741   9.415
18374SOL    HW157129   4.783   4.780   9.336
18374SOL    HW257130   4.877   4.669   9.373
18375SOL     OW57131   5.587   5.281  10.160
18375SOL    HW157132   5.495   5.272  10.132
18375SOL    HW257133   5.600   5.204  10.217
18376SOL     OW57134   3.807   4.981   9.996
18376SOL    HW157135   3.793   4.917  10.067
18376SOL    HW257136   3.885   4.945   9.953
18377SOL     OW57137   4.393   5.139  10.926
18377SOL    HW157138   4.331   5.086  10.979
18377SOL    HW257139   4.351   5.226  10.927
18378SOL     OW57140   5.548   3.928  10.534
18378SOL    HW157141   5.555   3.834  10.553
18378SOL    HW257142   5.552   3.928  10.436
18379SOL     OW57143   4.155   4.168   9.839
18379SOL    HW157144   4.199   4.097   9.790
18379SOL    HW257145   4.107   4.120   9.909
18380SOL     OW57146   5.451   5.206  10.410
18380SOL    HW157147   5.366   5.172  10.376
18380SOL    HW257148   5.461   5.153  10.490
18381SOL     OW57149   4.075   4.276  10.589
18381SOL    HW157150   4.128   4.217  10.647
18381SOL    HW257151   4.079   4.231  10.503
18382SOL     OW57152   4.555   5.314   9.987
18382SOL    HW157153   4.546   5.383   9.920
18382SOL    HW257154   4.467   5.274   9.991
18383SOL     OW57155   5.153   3.956  10.432
18383SOL    HW157156   5.191   3.887  10.487
18383SOL    HW257157   5.096   4.006  10.495
18384SOL     OW57158   4.741   3.727  10.453
18384SOL    HW157159   4.690   3.651  10.421
18384SOL    HW257160   4.831   3.688  10.462
18385SOL     OW57161   4.495   5.059   9.633
18385SOL    HW157162   4.474   4.964   9.633
18385SOL    HW257163   4.575   5.060   9.688
18386SOL     OW57164   4.336   5.267  10.594
18386SOL    HW157165   4.337   5.355  10.637
18386SOL    HW257166   4.423   5.269  10.551
18387SOL     OW57167   5.046   3.733   9.473
18387SOL    HW157168   5.009   3.785   9.400
18387SOL    HW257169   4.963   3.695   9.512
18388SOL     OW57170   5.004   4.174   9.986
18388SOL    HW157171   4.956   4.258   9.979
18388SOL    HW257172   4.999   4.154  10.081
18389SOL     OW57173   5.319   3.924  10.178
18389SOL    HW157174   5.253   3.941  10.246
18389SOL    HW257175   5.318   4.006  10.125
18390SOL     OW57176   3.766   4.792   9.617
18390SOL    HW157177   3.859   4.780   9.589
18390SOL    HW257178   3.744   4.701   9.645
18391SOL     OW57179   4.601   5.371   9.636
18391SOL    HW157180   4.522   5.371   9.580
18391SOL    HW257181   4.590   5.451   9.691
18392SOL     OW57182   3.963   6.240   0.152
18392SOL    HW157183   3.875   6.215   0.183
18392SOL    HW257184   3.971   6.199   0.065
18393SOL     OW57185   3.949   5.866   0.995
18393SOL    HW157186   3.974   5.842   1.087
18393SOL    HW257187   3.863   5.821   0.986
18394SOL     OW57188   3.730   5.983   0.644
18394SOL    HW157189   3.652   6.011   0.696
18394SOL    HW257190   3.692   5.910   0.593
18395SOL     OW57191   4.301   6.901   1.173
18395SOL    HW157192   4.208   6.894   1.145
18395SOL    HW257193   4.304   6.993   1.205
18396SOL     OW57194   5.292   7.096   0.711
18396SOL    HW157195   5.248   7.073   0.795
18396SOL    HW257196   5.222   7.085   0.644
18397SOL     OW57197   4.867   6.276   0.719
18397SOL    HW157198   4.893   6.366   0.692
18397SOL    HW257199   4.822   6.293   0.803
18398SOL     OW57200   5.499   6.203   0.203
18398SOL    HW157201   5.442   6.231   0.130
18398SOL    HW257202   5.446   6.136   0.248
18399SOL     OW57203   4.459   6.782   0.999
18399SOL    HW157204   4.392   6.817   1.062
18399SOL    HW257205   4.523   6.743   1.059
18400SOL     OW57206   4.610   6.342   1.806
18400SOL    HW157207   4.591   6.406   1.875
18400SOL    HW257208   4.636   6.398   1.730
18401SOL     OW57209   4.424   6.617   0.637
18401SOL    HW157210   4.481   6.583   0.707
18401SOL    HW257211   4.346   6.651   0.686
18402SOL     OW57212   4.422   6.745   1.797
18402SOL    HW157213   4.466   6.826   1.831
18402SOL    HW257214   4.334   6.779   1.772
18403SOL     OW57215   4.048   7.008   1.077
18403SOL    HW157216   3.969   6.968   1.038
18403SOL    HW257217   4.086   7.061   1.003
18404SOL     OW57218   5.194   7.074   1.404
18404SOL    HW157219   5.200   7.151   1.346
18404SOL    HW257220   5.103   7.081   1.439
18405SOL     OW57221   4.152   5.993   1.509
18405SOL    HW157222   4.230   5.937   1.503
18405SOL    HW257223   4.078   5.931   1.495
18406SOL     OW57224   5.334   6.039   0.732
18406SOL    HW157225   5.247   6.069   0.702
18406SOL    HW257226   5.341   6.089   0.815
18407SOL     OW57227   3.957   7.302   0.504
18407SOL    HW157228   3.991   7.388   0.536
18407SOL    HW257229   3.989   7.303   0.412
18408SOL     OW57230   4.840   6.925   1.658
18408SOL    HW157231   4.886   6.931   1.743
18408SOL    HW257232   4.796   6.839   1.668
18409SOL     OW57233   3.980   7.022   0.535
18409SOL    HW157234   3.970   7.119   0.539
18409SOL    HW257235   3.910   6.992   0.594
18410SOL     OW57236   4.001   6.676   0.912
18410SOL    HW157237   3.992   6.598   0.968
18410SOL    HW257238   3.939   6.738   0.954
18411SOL     OW57239   4.332   7.370   1.425
18411SOL    HW157240   4.249   7.349   1.471
18411SOL    HW257241   4.348   7.462   1.454
18412SOL     OW57242   4.314   6.562   0.162
18412SOL    HW157243   4.356   6.623   0.101
18412SOL    HW257244   4.350   6.592   0.248
18413SOL     OW57245   5.335   5.690   1.493
18413SOL    HW157246   5.345   5.765   1.432
18413SOL    HW257247   5.340   5.734   1.579
18414SOL     OW57248   3.840   6.249   0.558
18414SOL    HW157249   3.808   6.159   0.578
18414SOL    HW257250   3.835   6.294   0.645
18415SOL     OW57251   5.562   7.325   0.367
18415SOL    HW157252   5.633   7.301   0.429
18415SOL    HW257253   5.586   7.417   0.345
18416SOL     OW57254   3.799   7.195   0.127
18416SOL    HW157255   3.779   7.105   0.158
18416SOL    HW257256   3.769   7.249   0.202
18417SOL     OW57257   5.419   6.492   0.611
18417SOL    HW157258   5.511   6.471   0.587
18417SOL    HW257259   5.394   6.557   0.544
18418SOL     OW57260   5.342   6.713   0.430
18418SOL    HW157261   5.422   6.727   0.378
18418SOL    HW257262   5.359   6.770   0.508
18419SOL     OW57263   3.853   6.333   1.583
18419SOL    HW157264   3.946   6.362   1.590
18419SOL    HW257265   3.807   6.409   1.621
18420SOL     OW57266   4.315   6.984   0.744
18420SOL    HW157267   4.274   6.894   0.751
18420SOL    HW257268   4.295   7.005   0.651
18421SOL     OW57269   5.013   6.818   1.420
18421SOL    HW157270   5.040   6.748   1.358
18421SOL    HW257271   5.066   6.798   1.500
18422SOL     OW57272   4.561   5.584   0.493
18422SOL    HW157273   4.588   5.677   0.484
18422SOL    HW257274   4.465   5.590   0.504
18423SOL     OW57275   3.899   6.574   1.260
18423SOL    HW157276   3.988   6.535   1.256
18423SOL    HW257277   3.845   6.507   1.217
18424SOL     OW57278   5.263   6.553   0.212
18424SOL    HW157279   5.182   6.512   0.248
18424SOL    HW257280   5.289   6.613   0.283
18425SOL     OW57281   4.920   7.381   1.629
18425SOL    HW157282   4.926   7.459   1.572
18425SOL    HW257283   4.920   7.308   1.566
18426SOL     OW57284   4.053   5.816   1.802
18426SOL    HW157285   4.106   5.895   1.809
18426SOL    HW257286   3.967   5.847   1.835
18427SOL     OW57287   5.191   7.014   0.956
18427SOL    HW157288   5.134   7.030   1.034
18427SOL    HW257289   5.167   6.922   0.932
18428SOL     OW57290   5.377   7.334   0.607
18428SOL    HW157291   5.389   7.299   0.518
18428SOL    HW257292   5.352   7.254   0.655
18429SOL     OW57293   4.300   6.299   0.265
18429SOL    HW157294   4.313   6.383   0.219
18429SOL    HW257295   4.236   6.321   0.336
18430SOL     OW57296   4.988   5.918   0.908
18430SOL    HW157297   4.901   5.884   0.936
18430SOL    HW257298   5.048   5.881   0.977
18431SOL     OW57299   5.291   7.234   0.312
18431SOL    HW157300   5.384   7.263   0.311
18431SOL    HW257301   5.276   7.214   0.218
18432SOL     OW57302   4.525   6.215   1.457
18432SOL    HW157303   4.512   6.176   1.546
18432SOL    HW257304   4.472   6.153   1.402
18433SOL     OW57305   5.123   6.070   1.663
18433SOL    HW157306   5.126   6.127   1.742
18433SOL    HW257307   5.178   5.994   1.691
18434SOL     OW57308   4.692   6.475   1.584
18434SOL    HW157309   4.731   6.393   1.545
18434SOL    HW257310   4.642   6.511   1.508
18435SOL     OW57311   4.712   5.991   1.230
18435SOL    HW157312   4.625   6.000   1.271
18435SOL    HW257313   4.694   5.937   1.152
18436SOL     OW57314   4.763   6.267   0.410
18436SOL    HW157315   4.771   6.287   0.505
18436SOL    HW257316   4.681   6.215   0.408
18437SOL     OW57317   3.842   6.395   0.780
18437SOL    HW157318   3.908   6.393   0.851
18437SOL    HW257319   3.784   6.468   0.808
18438SOL     OW57320   3.828   7.425   1.566
18438SOL    HW157321   3.843   7.409   1.662
18438SOL    HW257322   3.733   7.414   1.558
18439SOL     OW57323   4.610   5.965   0.206
18439SOL    HW157324   4.659   6.015   0.138
18439SOL    HW257325   4.625   5.873   0.180
18440SOL     OW57326   5.440   6.162   1.839
18440SOL    HW157327   5.404   6.240   1.791
18440SOL    HW257328   5.467   6.107   1.764
18441SOL     OW57329   5.087   6.738   0.552
18441SOL    HW157330   5.171   6.728   0.505
18441SOL    HW257331   5.041   6.804   0.497
18442SOL     OW57332   4.269   5.787   0.896
18442SOL    HW157333   4.284   5.801   0.991
18442SOL    HW257334   4.269   5.877   0.860
18443SOL     OW57335   4.711   7.013   0.479
18443SOL    HW157336   4.663   7.079   0.425
18443SOL    HW257337   4.750   7.068   0.547
18444SOL     OW57338   4.061   7.393   0.849
18444SOL    HW157339   4.101   7.305   0.864
18444SOL    HW257340   4.133   7.453   0.875
18445SOL     OW57341   5.539   6.640   0.893
18445SOL    HW157342   5.482   6.641   0.815
18445SOL    HW257343   5.476   6.621   0.964
18446SOL     OW57344   4.950   7.135   1.490
18446SOL    HW157345   4.916   7.077   1.561
18446SOL    HW257346   4.894   7.107   1.416
18447SOL     OW57347   4.041   6.554   0.271
18447SOL    HW157348   4.124   6.544   0.222
18447SOL    HW257349   3.995   6.470   0.254
18448SOL     OW57350   5.199   6.340   0.700
18448SOL    HW157351   5.206   6.314   0.793
18448SOL    HW257352   5.283   6.388   0.684
18449SOL     OW57353   4.188   6.864   1.720
18449SOL    HW157354   4.146   6.870   1.630
18449SOL    HW257355   4.107   6.867   1.775
18450SOL     OW57356   4.814   7.355   0.211
18450SOL    HW157357   4.764   7.298   0.272
18450SOL    HW257358   4.846   7.291   0.144
18451SOL     OW57359   3.897   5.875   1.495
18451SOL    HW157360   3.826   5.934   1.526
18451SOL    HW257361   3.881   5.796   1.548
18452SOL     OW57362   5.337   6.926   0.097
18452SOL    HW157363   5.307   7.013   0.065
18452SOL    HW257364   5.285   6.865   0.041
18453SOL     OW57365   4.183   7.332   0.306
18453SOL    HW157366   4.225   7.374   0.383
18453SOL    HW257367   4.256   7.329   0.243
18454SOL     OW57368   5.138   5.696   0.440
18454SOL    HW157369   5.110   5.641   0.365
18454SOL    HW257370   5.180   5.770   0.395
18455SOL     OW57371   3.963   7.385   1.230
18455SOL    HW157372   4.020   7.320   1.273
18455SOL    HW257373   3.953   7.349   1.141
18456SOL     OW57374   4.686   7.220   0.920
18456SOL    HW157375   4.781   7.217   0.903
18456SOL    HW257376   4.648   7.211   0.831
18457SOL     OW57377   4.107   6.270   0.470
18457SOL    HW157378   4.117   6.173   0.472
18457SOL    HW257379   4.014   6.278   0.501
18458SOL     OW57380   5.258   5.842   1.725
18458SOL    HW157381   5.260   5.846   1.823
18458SOL    HW257382   5.202   5.765   1.711
18459SOL     OW57383   4.350   5.675   0.109
18459SOL    HW157384   4.444   5.669   0.132
18459SOL    HW257385   4.351   5.675   0.013
18460SOL     OW57386   4.495   5.853   1.727
18460SOL    HW157387   4.571   5.790   1.731
18460SOL    HW257388   4.444   5.827   1.805
18461SOL     OW57389   4.599   7.115   1.193
18461SOL    HW157390   4.637   7.133   1.106
18461SOL    HW257391   4.667   7.061   1.237
18462SOL     OW57392   5.060   6.180   1.422
18462SOL    HW157393   5.099   6.148   1.505
18462SOL    HW257394   5.106   6.264   1.406
18463SOL     OW57395   4.671   6.103   0.905
18463SOL    HW157396   4.654   6.085   0.809
18463SOL    HW257397   4.696   6.015   0.937
18464SOL     OW57398   4.287   5.637   0.501
18464SOL    HW157399   4.208   5.650   0.556
18464SOL    HW257400   4.279   5.714   0.440
18465SOL     OW57401   5.150   6.751   0.004
18465SOL    HW157402   5.188   6.689   0.069
18465SOL    HW257403   5.079   6.794   0.055
18466SOL     OW57404   4.002   5.658   0.212
18466SOL    HW157405   4.041   5.700   0.133
18466SOL    HW257406   4.073   5.595   0.237
18467SOL     OW57407   4.658   5.837   0.466
18467SOL    HW157408   4.633   5.886   0.386
18467SOL    HW257409   4.752   5.860   0.475
18468SOL     OW57410   4.811   6.269   1.469
18468SOL    HW157411   4.758   6.189   1.465
18468SOL    HW257412   4.902   6.237   1.460
18469SOL     OW57413   4.949   7.166   0.811
18469SOL    HW157414   4.957   7.226   0.734
18469SOL    HW257415   5.038   7.173   0.848
18470SOL     OW57416   4.198   6.745   0.740
18470SOL    HW157417   4.126   6.718   0.800
18470SOL    HW257418   4.159   6.724   0.653
18471SOL     OW57419   4.967   7.388   0.632
18471SOL    HW157420   5.029   7.444   0.580
18471SOL    HW257421   4.930   7.452   0.694
18472SOL     OW57422   4.757   6.109   0.029
18472SOL    HW157423   4.715   6.197   0.024
18472SOL    HW257424   4.846   6.131   0.059
18473SOL     OW57425   3.779   6.150   1.398
18473SOL    HW157426   3.874   6.141   1.376
18473SOL    HW257427   3.782   6.226   1.460
18474SOL     OW57428   4.295   5.811   1.167
18474SOL    HW157429   4.336   5.746   1.225
18474SOL    HW257430   4.202   5.804   1.194
18475SOL     OW57431   4.620   6.032   0.651
18475SOL    HW157432   4.570   6.089   0.591
18475SOL    HW257433   4.621   5.949   0.600
18476SOL     OW57434   4.734   5.659   0.771
18476SOL    HW157435   4.692   5.646   0.685
18476SOL    HW257436   4.713   5.576   0.817
18477SOL     OW57437   5.143   6.762   0.881
18477SOL    HW157438   5.071   6.698   0.885
18477SOL    HW257439   5.170   6.752   0.788
18478SOL     OW57440   5.216   6.153   0.977
18478SOL    HW157441   5.160   6.078   1.001
18478SOL    HW257442   5.276   6.162   1.054
18479SOL     OW57443   5.589   6.416   0.365
18479SOL    HW157444   5.632   6.357   0.430
18479SOL    HW257445   5.551   6.353   0.302
18480SOL     OW57446   4.214   7.042   0.137
18480SOL    HW157447   4.144   7.013   0.198
18480SOL    HW257448   4.209   6.974   0.067
18481SOL     OW57449   5.403   6.852   0.657
18481SOL    HW157450   5.501   6.855   0.657
18481SOL    HW257451   5.378   6.944   0.674
18482SOL     OW57452   5.129   6.190   0.091
18482SOL    HW157453   5.082   6.155   0.169
18482SOL    HW257454   5.170   6.111   0.054
18483SOL     OW57455   4.243   5.820   0.315
18483SOL    HW157456   4.270   5.773   0.234
18483SOL    HW257457   4.216   5.907   0.279
18484SOL     OW57458   5.458   6.821   1.582
18484SOL    HW157459   5.538   6.768   1.587
18484SOL    HW257460   5.496   6.910   1.590
18485SOL     OW57461   4.781   6.947   1.335
18485SOL    HW157462   4.703   6.915   1.383
18485SOL    HW257463   4.853   6.897   1.380
18486SOL     OW57464   4.838   6.815   1.099
18486SOL    HW157465   4.788   6.858   1.170
18486SOL    HW257466   4.804   6.857   1.018
18487SOL     OW57467   5.318   6.676   1.076
18487SOL    HW157468   5.328   6.742   1.147
18487SOL    HW257469   5.262   6.724   1.013
18488SOL     OW57470   4.654   5.685   1.404
18488SOL    HW157471   4.684   5.667   1.313
18488SOL    HW257472   4.732   5.728   1.444
18489SOL     OW57473   4.711   6.694   1.742
18489SOL    HW157474   4.617   6.708   1.761
18489SOL    HW257475   4.710   6.618   1.681
18490SOL     OW57476   4.456   6.659   0.378
18490SOL    HW157477   4.447   6.641   0.474
18490SOL    HW257478   4.533   6.603   0.352
18491SOL     OW57479   4.143   6.401   1.262
18491SOL    HW157480   4.216   6.402   1.327
18491SOL    HW257481   4.106   6.313   1.274
18492SOL     OW57482   5.007   5.978   1.254
18492SOL    HW157483   5.026   6.053   1.314
18492SOL    HW257484   4.913   5.993   1.232
18493SOL     OW57485   3.785   7.168   1.350
18493SOL    HW157486   3.789   7.260   1.321
18493SOL    HW257487   3.878   7.142   1.349
18494SOL     OW57488   4.089   6.690   0.505
18494SOL    HW157489   4.083   6.765   0.444
18494SOL    HW257490   4.072   6.616   0.444
18495SOL     OW57491   4.276   6.131   0.876
18495SOL    HW157492   4.304   6.189   0.802
18495SOL    HW257493   4.344   6.151   0.943
18496SOL     OW57494   4.952   6.927   0.401
18496SOL    HW157495   4.996   7.009   0.431
18496SOL    HW257496   4.859   6.945   0.422
18497SOL     OW57497   5.028   7.036   1.170
18497SOL    HW157498   5.084   7.006   1.243
18497SOL    HW257499   4.962   6.965   1.166
18498SOL     OW57500   5.301   6.213   0.452
18498SOL    HW157501   5.253   6.247   0.530
18498SOL    HW257502   5.323   6.296   0.407
18499SOL     OW57503   4.055   7.100   1.321
18499SOL    HW157504   4.044   7.059   1.233
18499SOL    HW257505   4.148   7.127   1.316
18500SOL     OW57506   4.166   6.314   1.632
18500SOL    HW157507   4.217   6.356   1.561
18500SOL    HW257508   4.198   6.223   1.629
18501SOL     OW57509   5.353   6.360   1.679
18501SOL    HW157510   5.265   6.402   1.681
18501SOL    HW257511   5.396   6.407   1.605
18502SOL     OW57512   4.710   5.694   1.739
18502SOL    HW157513   4.775   5.765   1.738
18502SOL    HW257514   4.764   5.619   1.709
18503SOL     OW57515   4.228   5.602   1.756
18503SOL    HW157516   4.187   5.543   1.691
18503SOL    HW257517   4.161   5.672   1.764
18504SOL     OW57518   4.339   6.474   1.058
18504SOL    HW157519   4.333   6.569   1.043
18504SOL    HW257520   4.264   6.457   1.118
18505SOL     OW57521   5.077   6.447   1.018
18505SOL    HW157522   4.992   6.407   0.996
18505SOL    HW257523   5.133   6.369   1.027
18506SOL     OW57524   4.966   6.098   0.283
18506SOL    HW157525   4.961   6.026   0.348
18506SOL    HW257526   4.899   6.159   0.318
18507SOL     OW57527   4.031   5.791   1.244
18507SOL    HW157528   3.979   5.814   1.323
18507SOL    HW257529   4.015   5.694   1.238
18508SOL     OW57530   3.772   6.894   1.281
18508SOL    HW157531   3.793   6.834   1.355
18508SOL    HW257532   3.761   6.980   1.324
18509SOL     OW57533   4.456   6.222   1.059
18509SOL    HW157534   4.535   6.206   1.005
18509SOL    HW257535   4.433   6.316   1.044
18510SOL     OW57536   5.486   6.541   1.849
18510SOL    HW157537   5.444   6.481   1.786
18510SOL    HW257538   5.421   6.544   1.920
18511SOL     OW57539   4.042   5.659   0.614
18511SOL    HW157540   4.012   5.747   0.644
18511SOL    HW257541   4.039   5.608   0.697
18512SOL     OW57542   5.296   5.956   0.396
18512SOL    HW157543   5.304   5.950   0.491
18512SOL    HW257544   5.287   6.053   0.389
18513SOL     OW57545   4.785   6.338   0.978
18513SOL    HW157546   4.762   6.345   1.073
18513SOL    HW257547   4.756   6.247   0.958
18514SOL     OW57548   4.708   7.151   1.713
18514SOL    HW157549   4.693   7.201   1.631
18514SOL    HW257550   4.726   7.061   1.680
18515SOL     OW57551   5.568   7.098   1.597
18515SOL    HW157552   5.611   7.116   1.511
18515SOL    HW257553   5.643   7.112   1.658
18516SOL     OW57554   4.070   6.486   1.811
18516SOL    HW157555   4.151   6.522   1.849
18516SOL    HW257556   4.105   6.413   1.754
18517SOL     OW57557   5.248   5.857   0.104
18517SOL    HW157558   5.178   5.798   0.136
18517SOL    HW257559   5.290   5.887   0.186
18518SOL     OW57560   5.002   6.424   0.028
18518SOL    HW157561   5.055   6.344   0.045
18518SOL    HW257562   5.040   6.455  11.047
18519SOL     OW57563   4.769   6.949   0.855
18519SOL    HW157564   4.786   6.868   0.802
18519SOL    HW257565   4.845   7.007   0.832
18520SOL     OW57566   4.013   6.402   0.996
18520SOL    HW157567   4.102   6.405   0.959
18520SOL    HW257568   4.009   6.311   1.030
18521SOL     OW57569   4.043   6.118   1.005
18521SOL    HW157570   4.016   6.026   0.992
18521SOL    HW257571   4.121   6.125   0.945
18522SOL     OW57572   4.879   5.955   1.692
18522SOL    HW157573   4.834   6.008   1.761
18522SOL    HW257574   4.966   5.999   1.687
18523SOL     OW57575   4.888   5.784   1.481
18523SOL    HW157576   4.888   5.850   1.553
18523SOL    HW257577   4.934   5.832   1.411
18524SOL     OW57578   3.727   6.934   0.215
18524SOL    HW157579   3.641   6.941   0.169
18524SOL    HW257580   3.734   6.837   0.226
18525SOL     OW57581   3.817   7.371   0.941
18525SOL    HW157582   3.787   7.301   0.879
18525SOL    HW257583   3.909   7.386   0.908
18526SOL     OW57584   4.202   7.164   0.908
18526SOL    HW157585   4.273   7.231   0.912
18526SOL    HW257586   4.236   7.101   0.841
18527SOL     OW57587   4.701   6.362   1.238
18527SOL    HW157588   4.754   6.333   1.315
18527SOL    HW257589   4.613   6.330   1.261
18528SOL     OW57590   3.746   6.103   1.114
18528SOL    HW157591   3.824   6.096   1.057
18528SOL    HW257592   3.784   6.124   1.200
18529SOL     OW57593   3.938   6.094   1.705
18529SOL    HW157594   4.000   6.059   1.640
18529SOL    HW257595   3.901   6.172   1.658
18530SOL     OW57596   5.118   6.505   1.652
18530SOL    HW157597   5.139   6.600   1.647
18530SOL    HW257598   5.105   6.482   1.559
18531SOL     OW57599   4.519   6.141   0.385
18531SOL    HW157600   4.542   6.076   0.317
18531SOL    HW257601   4.447   6.191   0.343
18532SOL     OW57602   5.368   6.209   1.201
18532SOL    HW157603   5.342   6.145   1.270
18532SOL    HW257604   5.453   6.172   1.170
18533SOL     OW57605   3.977   7.127   1.712
18533SOL    HW157606   3.962   7.189   1.785
18533SOL    HW257607   3.983   7.042   1.760
18534SOL     OW57608   4.396   6.063   1.268
18534SOL    HW157609   4.359   5.984   1.227
18534SOL    HW257610   4.409   6.123   1.192
18535SOL     OW57611   4.660   7.278   1.476
18535SOL    HW157612   4.623   7.245   1.393
18535SOL    HW257613   4.651   7.375   1.466
18536SOL     OW57614   4.176   6.060   0.201
18536SOL    HW157615   4.237   6.136   0.209
18536SOL    HW257616   4.091   6.106   0.210
18537SOL     OW57617   3.835   6.718   1.473
18537SOL    HW157618   3.852   6.664   1.554
18537SOL    HW257619   3.855   6.655   1.401
18538SOL     OW57620   5.036   6.634   1.224
18538SOL    HW157621   5.062   6.578   1.148
18538SOL    HW257622   4.959   6.682   1.189
18539SOL     OW57623   5.034   6.445   0.304
18539SOL    HW157624   4.950   6.412   0.340
18539SOL    HW257625   5.017   6.442   0.208
18540SOL     OW57626   5.481   7.341   1.135
18540SOL    HW157627   5.551   7.362   1.070
18540SOL    HW257628   5.469   7.245   1.120
18541SOL     OW57629   4.975   7.315   1.105
18541SOL    HW157630   5.055   7.349   1.062
18541SOL    HW257631   4.998   7.222   1.120
18542SOL     OW57632   3.829   6.846   1.029
18542SOL    HW157633   3.799   6.861   1.122
18542SOL    HW257634   3.753   6.801   0.989
18543SOL     OW57635   4.412   7.231   1.744
18543SOL    HW157636   4.352   7.306   1.733
18543SOL    HW257637   4.481   7.250   1.680
18544SOL     OW57638   4.635   5.703   0.145
18544SOL    HW157639   4.685   5.661   0.073
18544SOL    HW257640   4.668   5.650   0.219
18545SOL     OW57641   5.085   7.154   0.485
18545SOL    HW157642   5.152   7.164   0.415
18545SOL    HW257643   5.056   7.246   0.496
18546SOL     OW57644   3.874   7.384   1.827
18546SOL    HW157645   3.833   7.311   1.877
18546SOL    HW257646   3.923   7.428   1.898
18547SOL     OW57647   4.977   6.518   0.649
18547SOL    HW157648   5.055   6.461   0.659
18547SOL    HW257649   5.015   6.594   0.600
18548SOL     OW57650   4.520   6.851   1.417
18548SOL    HW157651   4.500   6.903   1.498
18548SOL    HW257652   4.435   6.858   1.370
18549SOL     OW57653   4.416   7.208   0.174
18549SOL    HW157654   4.422   7.224   0.079
18549SOL    HW257655   4.344   7.141   0.177
18550SOL     OW57656   5.353   7.317   1.400
18550SOL    HW157657   5.401   7.324   1.315
18550SOL    HW257658   5.346   7.411   1.426
18551SOL     OW57659   5.575   5.751   0.978
18551SOL    HW157660   5.591   5.660   0.946
18551SOL    HW257661   5.488   5.772   0.941
18552SOL     OW57662   3.978   5.902   0.708
18552SOL    HW157663   3.891   5.940   0.686
18552SOL    HW257664   3.982   5.912   0.805
18553SOL     OW57665   4.931   7.184   0.040
18553SOL    HW157666   4.943   7.089   0.059
18553SOL    HW257667   4.865   7.181  11.069
18554SOL     OW57668   4.551   6.590   1.384
18554SOL    HW157669   4.597   6.591   1.299
18554SOL    HW257670   4.542   6.685   1.406
18555SOL     OW57671   4.646   6.506   0.293
18555SOL    HW157672   4.698   6.540   0.217
18555SOL    HW257673   4.683   6.418   0.308
18556SOL     OW57674   5.239   7.181   0.040
18556SOL    HW157675   5.145   7.205   0.041
18556SOL    HW257676   5.267   7.203  11.052
18557SOL     OW57677   4.069   6.865   1.483
18557SOL    HW157678   4.050   6.941   1.427
18557SOL    HW257679   3.989   6.811   1.473
18558SOL     OW57680   5.323   6.878   1.258
18558SOL    HW157681   5.410   6.863   1.298
18558SOL    HW257682   5.273   6.923   1.329
18559SOL     OW57683   4.776   6.713   0.736
18559SOL    HW157684   4.707   6.645   0.747
18559SOL    HW257685   4.846   6.661   0.691
18560SOL     OW57686   4.750   5.819   0.987
18560SOL    HW157687   4.738   5.775   0.901
18560SOL    HW257688   4.751   5.741   1.047
18561SOL     OW57689   4.347   7.097   0.495
18561SOL    HW157690   4.391   7.040   0.430
18561SOL    HW257691   4.264   7.119   0.450
18562SOL     OW57692   5.433   5.963   1.385
18562SOL    HW157693   5.494   6.040   1.388
18562SOL    HW257694   5.483   5.901   1.327
18563SOL     OW57695   3.982   6.953   0.278
18563SOL    HW157696   3.888   6.950   0.252
18563SOL    HW257697   3.976   6.986   0.370
18564SOL     OW57698   3.854   6.596   1.707
18564SOL    HW157699   3.781   6.584   1.771
18564SOL    HW257700   3.931   6.560   1.756
18565SOL     OW57701   4.411   5.777   1.475
18565SOL    HW157702   4.497   5.740   1.447
18565SOL    HW257703   4.432   5.817   1.561
18566SOL     OW57704   3.847   5.962   0.003
18566SOL    HW157705   3.769   5.908  11.083
18566SOL    HW257706   3.816   6.048  11.076
18567SOL     OW57707   5.167   6.446   1.378
18567SOL    HW157708   5.122   6.509   1.320
18567SOL    HW257709   5.260   6.471   1.364
18568SOL     OW57710   3.769   5.742   0.325
18568SOL    HW157711   3.767   5.827   0.279
18568SOL    HW257712   3.860   5.713   0.305
18569SOL     OW57713   4.924   6.919   0.124
18569SOL    HW157714   4.827   6.911   0.116
18569SOL    HW257715   4.937   6.914   0.220
18570SOL     OW57716   4.346   6.405   1.430
18570SOL    HW157717   4.404   6.482   1.426
18570SOL    HW257718   4.413   6.334   1.443
18571SOL     OW57719   5.234   7.367   0.963
18571SOL    HW157720   5.263   7.413   0.883
18571SOL    HW257721   5.317   7.356   1.012
18572SOL     OW57722   4.452   6.118   1.689
18572SOL    HW157723   4.493   6.176   1.754
18572SOL    HW257724   4.469   6.027   1.722
18573SOL     OW57725   5.191   6.772   1.631
18573SOL    HW157726   5.181   6.772   1.729
18573SOL    HW257727   5.288   6.782   1.621
18574SOL     OW57728   4.093   7.322   1.559
18574SOL    HW157729   4.010   7.371   1.549
18574SOL    HW257730   4.061   7.237   1.596
18575SOL     OW57731   5.424   6.473   1.237
18575SOL    HW157732   5.399   6.381   1.215
18575SOL    HW257733   5.380   6.525   1.167
18576SOL     OW57734   4.931   5.912   0.481
18576SOL    HW157735   4.992   5.837   0.481
18576SOL    HW257736   4.963   5.965   0.557
18577SOL     OW57737   4.315   6.331   0.669
18577SOL    HW157738   4.349   6.413   0.633
18577SOL    HW257739   4.247   6.306   0.604
18578SOL     OW57740   5.492   5.956   1.644
18578SOL    HW157741   5.461   5.965   1.552
18578SOL    HW257742   5.415   5.912   1.685
18579SOL     OW57743   5.462   6.527   1.501
18579SOL    HW157744   5.483   6.620   1.489
18579SOL    HW257745   5.474   6.491   1.411
18580SOL     OW57746   4.639   6.947   0.046
18580SOL    HW157747   4.548   6.941   0.078
18580SOL    HW257748   4.642   7.035   0.004
18581SOL     OW57749   4.368   7.383   0.905
18581SOL    HW157750   4.336   7.475   0.897
18581SOL    HW257751   4.457   7.395   0.940
18582SOL     OW57752   4.605   6.524   0.839
18582SOL    HW157753   4.657   6.454   0.883
18582SOL    HW257754   4.577   6.577   0.914
18583SOL     OW57755   4.774   6.580   0.073
18583SOL    HW157756   4.789   6.652   0.009
18583SOL    HW257757   4.852   6.524   0.059
18584SOL     OW57758   5.585   7.144   0.812
18584SOL    HW157759   5.492   7.138   0.786
18584SOL    HW257760   5.596   7.067   0.869
18585SOL     OW57761   3.964   6.904   1.859
18585SOL    HW157762   3.889   6.848   1.836
18585SOL    HW257763   3.949   6.919   1.954
18586SOL     OW57764   3.803   6.842   0.652
18586SOL    HW157765   3.811   6.787   0.731
18586SOL    HW257766   3.867   6.801   0.592
18587SOL     OW57767   4.399   6.991   1.616
18587SOL    HW157768   4.325   6.935   1.648
18587SOL    HW257769   4.382   7.074   1.665
18588SOL     OW57770   5.549   5.756   1.240
18588SOL    HW157771   5.562   5.662   1.255
18588SOL    HW257772   5.559   5.761   1.142
18589SOL     OW57773   4.150   5.996   0.516
18589SOL    HW157774   4.186   5.918   0.470
18589SOL    HW257775   4.103   5.958   0.592
18590SOL     OW57776   5.437   7.084   1.094
18590SOL    HW157777   5.364   7.045   1.045
18590SOL    HW257778   5.450   7.020   1.165
18591SOL     OW57779   4.042   6.128   1.276
18591SOL    HW157780   4.111   6.084   1.328
18591SOL    HW257781   4.061   6.098   1.185
18592SOL     OW57782   4.537   7.171   0.692
18592SOL    HW157783   4.559   7.235   0.622
18592SOL    HW257784   4.445   7.151   0.669
18593SOL     OW57785   5.164   5.836   1.085
18593SOL    HW157786   5.195   5.760   1.135
18593SOL    HW257787   5.109   5.882   1.152
18594SOL     OW57788   4.745   5.591   1.147
18594SOL    HW157789   4.688   5.514   1.132
18594SOL    HW257790   4.835   5.551   1.139
18595SOL     OW57791   4.476   6.924   0.336
18595SOL    HW157792   4.453   6.829   0.344
18595SOL    HW257793   4.571   6.920   0.346
18596SOL     OW57794   4.316   7.156   1.254
18596SOL    HW157795   4.321   7.234   1.313
18596SOL    HW257796   4.410   7.144   1.234
18597SOL     OW57797   5.046   5.622   0.181
18597SOL    HW157798   5.075   5.584   0.098
18597SOL    HW257799   4.957   5.582   0.192
18598SOL     OW57800   5.044   6.062   0.694
18598SOL    HW157801   4.985   6.140   0.697
18598SOL    HW257802   5.019   6.017   0.778
18599SOL     OW57803   5.330   5.784   0.848
18599SOL    HW157804   5.253   5.784   0.907
18599SOL    HW257805   5.321   5.870   0.804
18600SOL     OW57806   3.780   6.674   0.272
18600SOL    HW157807   3.877   6.664   0.272
18600SOL    HW257808   3.752   6.583   0.295
18601SOL     OW57809   4.616   7.231   0.355
18601SOL    HW157810   4.538   7.217   0.298
18601SOL    HW257811   4.592   7.312   0.405
18602SOL     OW57812   3.957   6.220   1.988
18602SOL    HW157813   3.867   6.207   2.021
18602SOL    HW257814   3.951   6.199   1.894
18603SOL     OW57815   3.947   5.868   2.865
18603SOL    HW157816   3.973   5.844   2.956
18603SOL    HW257817   3.861   5.822   2.856
18604SOL     OW57818   3.729   5.980   2.495
18604SOL    HW157819   3.647   6.006   2.541
18604SOL    HW257820   3.700   5.899   2.450
18605SOL     OW57821   4.296   6.874   3.058
18605SOL    HW157822   4.208   6.873   3.018
18605SOL    HW257823   4.305   6.967   3.083
18606SOL     OW57824   5.257   7.117   2.572
18606SOL    HW157825   5.225   7.087   2.659
18606SOL    HW257826   5.180   7.111   2.512
18607SOL     OW57827   4.837   6.282   2.563
18607SOL    HW157828   4.885   6.362   2.537
18607SOL    HW257829   4.813   6.305   2.655
18608SOL     OW57830   5.498   6.191   2.099
18608SOL    HW157831   5.475   6.183   2.004
18608SOL    HW257832   5.447   6.119   2.137
18609SOL     OW57833   4.459   6.738   2.886
18609SOL    HW157834   4.404   6.785   2.952
18609SOL    HW257835   4.499   6.813   2.839
18610SOL     OW57836   4.608   6.347   3.680
18610SOL    HW157837   4.574   6.411   3.744
18610SOL    HW257838   4.629   6.402   3.602
18611SOL     OW57839   4.411   6.608   2.526
18611SOL    HW157840   4.478   6.587   2.594
18611SOL    HW257841   4.347   6.662   2.575
18612SOL     OW57842   4.422   6.742   3.670
18612SOL    HW157843   4.464   6.827   3.694
18612SOL    HW257844   4.334   6.769   3.638
18613SOL     OW57845   4.041   7.019   2.932
18613SOL    HW157846   3.968   6.977   2.883
18613SOL    HW257847   4.086   7.074   2.866
18614SOL     OW57848   5.201   7.092   3.244
18614SOL    HW157849   5.247   7.177   3.248
18614SOL    HW257850   5.127   7.105   3.306
18615SOL     OW57851   4.149   5.999   3.359
18615SOL    HW157852   4.232   5.949   3.361
18615SOL    HW257853   4.081   5.929   3.358
18616SOL     OW57854   5.342   6.034   2.603
18616SOL    HW157855   5.277   6.073   2.542
18616SOL    HW257856   5.349   6.101   2.672
18617SOL     OW57857   3.947   7.303   2.337
18617SOL    HW157858   3.978   7.379   2.390
18617SOL    HW257859   4.005   7.308   2.260
18618SOL     OW57860   4.863   6.931   3.528
18618SOL    HW157861   4.904   6.928   3.615
18618SOL    HW257862   4.813   6.847   3.528
18619SOL     OW57863   3.971   7.013   2.392
18619SOL    HW157864   3.972   7.110   2.397
18619SOL    HW257865   3.895   6.992   2.448
18620SOL     OW57866   3.995   6.664   2.765
18620SOL    HW157867   3.999   6.595   2.831
18620SOL    HW257868   3.941   6.732   2.810
18621SOL     OW57869   4.327   7.384   3.263
18621SOL    HW157870   4.256   7.356   3.323
18621SOL    HW257871   4.347   7.473   3.296
18622SOL     OW57872   4.293   6.578   1.966
18622SOL    HW157873   4.347   6.627   1.900
18622SOL    HW257874   4.333   6.609   2.049
18623SOL     OW57875   5.323   5.692   3.338
18623SOL    HW157876   5.331   5.767   3.278
18623SOL    HW257877   5.322   5.735   3.424
18624SOL     OW57878   3.849   6.232   2.429
18624SOL    HW157879   3.812   6.144   2.445
18624SOL    HW257880   3.836   6.277   2.515
18625SOL     OW57881   5.579   7.334   2.193
18625SOL    HW157882   5.645   7.316   2.262
18625SOL    HW257883   5.600   7.427   2.172
18626SOL     OW57884   3.792   7.181   1.979
18626SOL    HW157885   3.771   7.089   2.001
18626SOL    HW257886   3.759   7.228   2.057
18627SOL     OW57887   5.406   6.486   2.500
18627SOL    HW157888   5.498   6.467   2.475
18627SOL    HW257889   5.379   6.546   2.430
18628SOL     OW57890   5.373   6.699   2.314
18628SOL    HW157891   5.462   6.698   2.277
18628SOL    HW257892   5.379   6.769   2.382
18629SOL     OW57893   3.844   6.330   3.439
18629SOL    HW157894   3.938   6.352   3.454
18629SOL    HW257895   3.802   6.410   3.474
18630SOL     OW57896   4.314   7.000   2.622
18630SOL    HW157897   4.275   6.911   2.634
18630SOL    HW257898   4.306   7.010   2.525
18631SOL     OW57899   5.019   6.825   3.284
18631SOL    HW157900   5.045   6.747   3.231
18631SOL    HW257901   5.075   6.814   3.363
18632SOL     OW57902   4.554   5.601   2.318
18632SOL    HW157903   4.576   5.690   2.348
18632SOL    HW257904   4.469   5.583   2.360
18633SOL     OW57905   3.898   6.563   3.117
18633SOL    HW157906   3.990   6.531   3.117
18633SOL    HW257907   3.847   6.487   3.088
18634SOL     OW57908   5.278   6.540   2.035
18634SOL    HW157909   5.194   6.501   2.066
18634SOL    HW257910   5.315   6.572   2.119
18635SOL     OW57911   4.898   7.399   3.471
18635SOL    HW157912   4.905   7.461   3.398
18635SOL    HW257913   4.914   7.314   3.427
18636SOL     OW57914   4.072   5.815   3.665
18636SOL    HW157915   4.108   5.901   3.688
18636SOL    HW257916   3.977   5.830   3.687
18637SOL     OW57917   5.195   7.013   2.821
18637SOL    HW157918   5.132   7.031   2.893
18637SOL    HW257919   5.169   6.922   2.795
18638SOL     OW57920   5.389   7.314   2.459
18638SOL    HW157921   5.357   7.281   2.373
18638SOL    HW257922   5.350   7.248   2.519
18639SOL     OW57923   4.321   6.301   2.125
18639SOL    HW157924   4.323   6.386   2.078
18639SOL    HW257925   4.249   6.313   2.189
18640SOL     OW57926   4.979   5.950   2.791
18640SOL    HW157927   4.894   5.905   2.807
18640SOL    HW257928   5.041   5.898   2.846
18641SOL     OW57929   5.296   7.232   2.177
18641SOL    HW157930   5.389   7.259   2.172
18641SOL    HW257931   5.276   7.213   2.084
18642SOL     OW57932   4.530   6.216   3.323
18642SOL    HW157933   4.512   6.187   3.415
18642SOL    HW257934   4.486   6.146   3.271
18643SOL     OW57935   5.118   6.057   3.532
18643SOL    HW157936   5.127   6.114   3.612
18643SOL    HW257937   5.177   5.982   3.553
18644SOL     OW57938   4.680   6.472   3.443
18644SOL    HW157939   4.726   6.392   3.409
18644SOL    HW257940   4.638   6.506   3.361
18645SOL     OW57941   4.684   5.984   3.097
18645SOL    HW157942   4.594   6.004   3.126
18645SOL    HW257943   4.676   5.899   3.052
18646SOL     OW57944   4.764   6.271   2.272
18646SOL    HW157945   4.777   6.288   2.367
18646SOL    HW257946   4.678   6.224   2.271
18647SOL     OW57947   3.840   6.387   2.657
18647SOL    HW157948   3.920   6.397   2.711
18647SOL    HW257949   3.792   6.469   2.676
18648SOL     OW57950   3.834   7.391   3.429
18648SOL    HW157951   3.847   7.385   3.526
18648SOL    HW257952   3.749   7.436   3.424
18649SOL     OW57953   4.605   5.977   2.059
18649SOL    HW157954   4.651   6.026   1.990
18649SOL    HW257955   4.618   5.886   2.030
18650SOL     OW57956   5.450   6.173   3.699
18650SOL    HW157957   5.419   6.252   3.651
18650SOL    HW257958   5.475   6.115   3.626
18651SOL     OW57959   5.084   6.738   2.414
18651SOL    HW157960   5.167   6.728   2.367
18651SOL    HW257961   5.035   6.800   2.358
18652SOL     OW57962   4.266   5.765   2.759
18652SOL    HW157963   4.278   5.787   2.853
18652SOL    HW257964   4.237   5.848   2.720
18653SOL     OW57965   4.717   7.035   2.336
18653SOL    HW157966   4.666   7.095   2.279
18653SOL    HW257967   4.724   7.084   2.419
18654SOL     OW57968   4.070   7.404   2.715
18654SOL    HW157969   4.117   7.321   2.733
18654SOL    HW257970   4.139   7.470   2.732
18655SOL     OW57971   5.533   6.638   2.752
18655SOL    HW157972   5.489   6.641   2.666
18655SOL    HW257973   5.459   6.629   2.815
18656SOL     OW57974   4.949   7.142   3.362
18656SOL    HW157975   4.929   7.077   3.431
18656SOL    HW257976   4.906   7.102   3.285
18657SOL     OW57977   4.038   6.527   2.121
18657SOL    HW157978   4.105   6.563   2.063
18657SOL    HW257979   4.005   6.451   2.070
18658SOL     OW57980   5.197   6.346   2.587
18658SOL    HW157981   5.201   6.319   2.679
18658SOL    HW257982   5.279   6.398   2.575
18659SOL     OW57983   4.185   6.849   3.579
18659SOL    HW157984   4.143   6.854   3.490
18659SOL    HW257985   4.107   6.865   3.635
18660SOL     OW57986   4.812   7.351   2.100
18660SOL    HW157987   4.742   7.308   2.151
18660SOL    HW257988   4.822   7.292   2.023
18661SOL     OW57989   3.891   5.873   3.362
18661SOL    HW157990   3.817   5.926   3.398
18661SOL    HW257991   3.873   5.786   3.400
18662SOL     OW57992   5.339   6.952   1.953
18662SOL    HW157993   5.283   7.029   1.936
18662SOL    HW257994   5.282   6.878   1.924
18663SOL     OW57995   4.180   7.329   2.180
18663SOL    HW157996   4.227   7.377   2.251
18663SOL    HW257997   4.253   7.295   2.125
18664SOL     OW57998   5.123   5.719   2.307
18664SOL    HW157999   5.114   5.668   2.225
18664SOL    HW258000   5.220   5.726   2.315
18665SOL     OW58001   3.973   7.384   3.091
18665SOL    HW158002   4.024   7.315   3.135
18665SOL    HW258003   3.959   7.348   3.003
18666SOL     OW58004   4.682   7.281   2.745
18666SOL    HW158005   4.765   7.233   2.753
18666SOL    HW258006   4.636   7.232   2.674
18667SOL     OW58007   4.122   6.274   2.329
18667SOL    HW158008   4.146   6.183   2.354
18667SOL    HW258009   4.027   6.275   2.351
18668SOL     OW58010   5.261   5.828   3.582
18668SOL    HW158011   5.259   5.838   3.680
18668SOL    HW258012   5.203   5.752   3.572
18669SOL     OW58013   4.355   5.723   1.963
18669SOL    HW158014   4.424   5.663   1.992
18669SOL    HW258015   4.308   5.669   1.896
18670SOL     OW58016   4.490   5.857   3.574
18670SOL    HW158017   4.569   5.800   3.581
18670SOL    HW258018   4.446   5.840   3.659
18671SOL     OW58019   4.609   7.133   3.056
18671SOL    HW158020   4.605   7.106   2.963
18671SOL    HW258021   4.667   7.067   3.096
18672SOL     OW58022   5.045   6.172   3.298
18672SOL    HW158023   5.081   6.136   3.381
18672SOL    HW258024   5.103   6.248   3.281
18673SOL     OW58025   4.542   6.985   2.792
18673SOL    HW158026   4.627   6.974   2.744
18673SOL    HW258027   4.479   7.001   2.720
18674SOL     OW58028   4.668   6.100   2.774
18674SOL    HW158029   4.666   6.087   2.678
18674SOL    HW258030   4.703   6.016   2.807
18675SOL     OW58031   4.277   5.640   2.360
18675SOL    HW158032   4.198   5.646   2.416
18675SOL    HW258033   4.269   5.720   2.304
18676SOL     OW58034   5.171   6.757   1.890
18676SOL    HW158035   5.201   6.680   1.942
18676SOL    HW258036   5.083   6.775   1.926
18677SOL     OW58037   4.007   5.629   2.057
18677SOL    HW158038   4.067   5.697   2.024
18677SOL    HW258039   4.070   5.566   2.097
18678SOL     OW58040   4.648   5.853   2.366
18678SOL    HW158041   4.637   5.884   2.276
18678SOL    HW258042   4.745   5.852   2.375
18679SOL     OW58043   4.808   6.271   3.335
18679SOL    HW158044   4.752   6.192   3.339
18679SOL    HW258045   4.898   6.234   3.328
18680SOL     OW58046   4.952   7.168   2.657
18680SOL    HW158047   4.949   7.224   2.578
18680SOL    HW258048   5.034   7.196   2.699
18681SOL     OW58049   4.193   6.749   2.601
18681SOL    HW158050   4.119   6.718   2.658
18681SOL    HW258051   4.160   6.725   2.512
18682SOL     OW58052   4.987   7.402   2.455
18682SOL    HW158053   5.037   7.469   2.404
18682SOL    HW258054   4.948   7.456   2.524
18683SOL     OW58055   4.784   6.115   1.890
18683SOL    HW158056   4.741   6.200   1.872
18683SOL    HW258057   4.855   6.137   1.952
18684SOL     OW58058   3.770   6.143   3.256
18684SOL    HW158059   3.865   6.130   3.243
18684SOL    HW258060   3.769   6.220   3.316
18685SOL     OW58061   4.293   5.823   3.019
18685SOL    HW158062   4.340   5.742   3.045
18685SOL    HW258063   4.205   5.808   3.061
18686SOL     OW58064   4.559   6.064   2.517
18686SOL    HW158065   4.551   6.099   2.426
18686SOL    HW258066   4.584   5.972   2.497
18687SOL     OW58067   4.741   5.666   2.626
18687SOL    HW158068   4.699   5.635   2.545
18687SOL    HW258069   4.723   5.591   2.687
18688SOL     OW58070   5.148   6.763   2.748
18688SOL    HW158071   5.103   6.680   2.769
18688SOL    HW258072   5.144   6.765   2.651
18689SOL     OW58073   5.167   6.176   2.862
18689SOL    HW158074   5.120   6.092   2.866
18689SOL    HW258075   5.234   6.170   2.932
18690SOL     OW58076   5.569   6.411   2.252
18690SOL    HW158077   5.622   6.356   2.312
18690SOL    HW258078   5.548   6.347   2.182
18691SOL     OW58079   4.209   7.013   1.983
18691SOL    HW158080   4.130   6.990   2.035
18691SOL    HW258081   4.199   6.959   1.904
18692SOL     OW58082   5.401   6.879   2.522
18692SOL    HW158083   5.497   6.883   2.533
18692SOL    HW258084   5.369   6.966   2.549
18693SOL     OW58085   5.125   6.175   1.920
18693SOL    HW158086   5.078   6.146   2.001
18693SOL    HW258087   5.213   6.137   1.935
18694SOL     OW58088   4.248   5.841   2.187
18694SOL    HW158089   4.291   5.798   2.110
18694SOL    HW258090   4.220   5.925   2.146
18695SOL     OW58091   5.460   6.812   3.438
18695SOL    HW158092   5.536   6.768   3.479
18695SOL    HW258093   5.484   6.906   3.449
18696SOL     OW58094   4.794   6.946   3.196
18696SOL    HW158095   4.718   6.904   3.240
18696SOL    HW258096   4.870   6.901   3.241
18697SOL     OW58097   5.326   7.210   3.500
18697SOL    HW158098   5.335   7.250   3.412
18697SOL    HW258099   5.394   7.140   3.498
18698SOL     OW58100   4.835   6.808   2.958
18698SOL    HW158101   4.791   6.855   3.030
18698SOL    HW258102   4.806   6.858   2.880
18699SOL     OW58103   5.328   6.689   2.949
18699SOL    HW158104   5.338   6.752   3.023
18699SOL    HW258105   5.269   6.738   2.890
18700SOL     OW58106   4.644   5.687   3.260
18700SOL    HW158107   4.672   5.654   3.173
18700SOL    HW258108   4.727   5.727   3.294
18701SOL     OW58109   4.719   6.703   3.587
18701SOL    HW158110   4.629   6.726   3.618
18701SOL    HW258111   4.704   6.624   3.532
18702SOL     OW58112   4.423   6.637   2.202
18702SOL    HW158113   4.412   6.615   2.296
18702SOL    HW258114   4.501   6.583   2.178
18703SOL     OW58115   4.140   6.399   3.131
18703SOL    HW158116   4.215   6.401   3.195
18703SOL    HW258117   4.100   6.313   3.150
18704SOL     OW58118   5.002   5.970   3.125
18704SOL    HW158119   5.018   6.042   3.189
18704SOL    HW258120   4.914   5.993   3.090
18705SOL     OW58121   3.800   7.157   3.201
18705SOL    HW158122   3.798   7.254   3.199
18705SOL    HW258123   3.896   7.139   3.204
18706SOL     OW58124   4.087   6.678   2.365
18706SOL    HW158125   4.105   6.749   2.302
18706SOL    HW258126   4.067   6.603   2.307
18707SOL     OW58127   4.951   6.931   2.247
18707SOL    HW158128   4.998   7.001   2.295
18707SOL    HW258129   4.858   6.951   2.272
18708SOL     OW58130   5.033   7.057   3.032
18708SOL    HW158131   5.096   7.047   3.106
18708SOL    HW258132   4.963   6.995   3.056
18709SOL     OW58133   5.305   6.199   2.343
18709SOL    HW158134   5.260   6.258   2.406
18709SOL    HW258135   5.337   6.262   2.277
18710SOL     OW58136   4.064   7.094   3.182
18710SOL    HW158137   4.054   7.060   3.090
18710SOL    HW258138   4.158   7.119   3.180
18711SOL     OW58139   4.160   6.315   3.482
18711SOL    HW158140   4.218   6.362   3.420
18711SOL    HW258141   4.198   6.226   3.481
18712SOL     OW58142   5.353   6.365   3.547
18712SOL    HW158143   5.262   6.398   3.545
18712SOL    HW258144   5.391   6.407   3.467
18713SOL     OW58145   4.706   5.699   3.603
18713SOL    HW158146   4.773   5.769   3.603
18713SOL    HW258147   4.756   5.627   3.560
18714SOL     OW58148   4.226   5.593   3.625
18714SOL    HW158149   4.176   5.545   3.555
18714SOL    HW258150   4.170   5.673   3.634
18715SOL     OW58151   4.330   6.462   2.928
18715SOL    HW158152   4.346   6.557   2.917
18715SOL    HW258153   4.272   6.459   3.006
18716SOL     OW58154   5.077   6.448   2.881
18716SOL    HW158155   4.992   6.414   2.851
18716SOL    HW258156   5.127   6.366   2.893
18717SOL     OW58157   4.950   6.107   2.135
18717SOL    HW158158   4.951   6.029   2.193
18717SOL    HW258159   4.891   6.166   2.185
18718SOL     OW58160   4.032   5.790   3.112
18718SOL    HW158161   3.980   5.813   3.191
18718SOL    HW258162   4.012   5.695   3.104
18719SOL     OW58163   3.758   6.897   3.143
18719SOL    HW158164   3.779   6.841   3.221
18719SOL    HW258165   3.771   6.987   3.177
18720SOL     OW58166   4.426   6.207   2.864
18720SOL    HW158167   4.520   6.185   2.882
18720SOL    HW258168   4.416   6.301   2.892
18721SOL     OW58169   5.491   6.540   3.708
18721SOL    HW158170   5.443   6.484   3.645
18721SOL    HW258171   5.430   6.539   3.783
18722SOL     OW58172   4.034   5.652   2.477
18722SOL    HW158173   3.999   5.738   2.505
18722SOL    HW258174   4.044   5.605   2.562
18723SOL     OW58175   5.326   5.966   2.203
18723SOL    HW158176   5.356   5.893   2.260
18723SOL    HW258177   5.314   6.039   2.268
18724SOL     OW58178   4.781   6.340   2.827
18724SOL    HW158179   4.764   6.359   2.921
18724SOL    HW258180   4.754   6.246   2.821
18725SOL     OW58181   4.708   7.146   3.567
18725SOL    HW158182   4.694   7.199   3.485
18725SOL    HW258183   4.745   7.064   3.532
18726SOL     OW58184   5.566   7.064   3.469
18726SOL    HW158185   5.587   7.092   3.378
18726SOL    HW258186   5.637   7.105   3.519
18727SOL     OW58187   4.072   6.489   3.662
18727SOL    HW158188   4.155   6.513   3.706
18727SOL    HW258189   4.100   6.413   3.606
18728SOL     OW58190   5.227   5.839   1.985
18728SOL    HW158191   5.156   5.782   2.020
18728SOL    HW258192   5.267   5.877   2.066
18729SOL     OW58193   5.003   6.413   1.886
18729SOL    HW158194   5.048   6.327   1.897
18729SOL    HW258195   5.038   6.440   1.798
18730SOL     OW58196   4.791   6.944   2.706
18730SOL    HW158197   4.811   6.866   2.651
18730SOL    HW258198   4.860   7.009   2.683
18731SOL     OW58199   4.052   6.378   2.839
18731SOL    HW158200   4.147   6.388   2.855
18731SOL    HW258201   4.028   6.308   2.901
18732SOL     OW58202   4.075   6.105   2.868
18732SOL    HW158203   4.032   6.018   2.857
18732SOL    HW258204   4.078   6.140   2.779
18733SOL     OW58205   4.875   5.937   3.562
18733SOL    HW158206   4.828   5.997   3.622
18733SOL    HW258207   4.965   5.976   3.564
18734SOL     OW58208   4.889   5.786   3.336
18734SOL    HW158209   4.898   5.842   3.415
18734SOL    HW258210   4.937   5.837   3.269
18735SOL     OW58211   3.726   6.914   2.055
18735SOL    HW158212   3.632   6.925   2.026
18735SOL    HW258213   3.726   6.822   2.089
18736SOL     OW58214   3.823   7.373   2.807
18736SOL    HW158215   3.796   7.301   2.747
18736SOL    HW258216   3.914   7.393   2.774
18737SOL     OW58217   4.205   7.180   2.790
18737SOL    HW158218   4.276   7.248   2.801
18737SOL    HW258219   4.250   7.114   2.733
18738SOL     OW58220   4.701   6.356   3.089
18738SOL    HW158221   4.762   6.330   3.160
18738SOL    HW258222   4.616   6.343   3.133
18739SOL     OW58223   3.745   6.115   2.969
18739SOL    HW158224   3.822   6.088   2.918
18739SOL    HW258225   3.782   6.130   3.057
18740SOL     OW58226   3.939   6.100   3.566
18740SOL    HW158227   3.997   6.060   3.499
18740SOL    HW258228   3.895   6.172   3.517
18741SOL     OW58229   5.112   6.504   3.512
18741SOL    HW158230   5.132   6.599   3.511
18741SOL    HW258231   5.112   6.482   3.418
18742SOL     OW58232   4.521   6.146   2.257
18742SOL    HW158233   4.543   6.084   2.185
18742SOL    HW258234   4.453   6.201   2.215
18743SOL     OW58235   5.360   6.199   3.056
18743SOL    HW158236   5.346   6.136   3.128
18743SOL    HW258237   5.445   6.169   3.020
18744SOL     OW58238   3.976   7.127   3.580
18744SOL    HW158239   3.954   7.198   3.643
18744SOL    HW258240   3.981   7.049   3.638
18745SOL     OW58241   4.407   6.062   3.127
18745SOL    HW158242   4.359   5.982   3.099
18745SOL    HW258243   4.395   6.121   3.051
18746SOL     OW58244   4.655   7.277   3.337
18746SOL    HW158245   4.632   7.244   3.249
18746SOL    HW258246   4.648   7.374   3.326
18747SOL     OW58247   4.167   6.073   2.064
18747SOL    HW158248   4.234   6.144   2.066
18747SOL    HW258249   4.086   6.124   2.044
18748SOL     OW58250   3.825   6.718   3.330
18748SOL    HW158251   3.837   6.662   3.410
18748SOL    HW258252   3.850   6.657   3.258
18749SOL     OW58253   5.047   6.626   3.098
18749SOL    HW158254   5.062   6.568   3.021
18749SOL    HW258255   4.982   6.689   3.062
18750SOL     OW58256   5.035   6.459   2.151
18750SOL    HW158257   4.959   6.423   2.198
18750SOL    HW258258   5.011   6.444   2.058
18751SOL     OW58259   5.483   7.331   2.997
18751SOL    HW158260   5.557   7.351   2.936
18751SOL    HW258261   5.468   7.236   2.977
18752SOL     OW58262   4.963   7.313   2.970
18752SOL    HW158263   5.048   7.338   2.930
18752SOL    HW258264   4.977   7.218   2.990
18753SOL     OW58265   3.828   6.842   2.891
18753SOL    HW158266   3.799   6.861   2.984
18753SOL    HW258267   3.747   6.804   2.854
18754SOL     OW58268   4.422   7.227   3.597
18754SOL    HW158269   4.379   7.313   3.589
18754SOL    HW258270   4.512   7.245   3.564
18755SOL     OW58271   5.403   5.735   2.342
18755SOL    HW158272   5.484   5.719   2.291
18755SOL    HW258273   5.400   5.657   2.401
18756SOL     OW58274   5.086   7.162   2.351
18756SOL    HW158275   5.151   7.175   2.279
18756SOL    HW258276   5.046   7.250   2.360
18757SOL     OW58277   3.872   7.370   3.694
18757SOL    HW158278   3.831   7.303   3.753
18757SOL    HW258279   3.915   7.429   3.758
18758SOL     OW58280   4.978   6.507   2.515
18758SOL    HW158281   5.060   6.459   2.539
18758SOL    HW258282   5.015   6.589   2.476
18759SOL     OW58283   4.515   6.831   3.283
18759SOL    HW158284   4.498   6.884   3.364
18759SOL    HW258285   4.437   6.854   3.230
18760SOL     OW58286   4.381   7.210   2.021
18760SOL    HW158287   4.401   7.219   1.926
18760SOL    HW258288   4.320   7.133   2.018
18761SOL     OW58289   5.352   7.321   3.252
18761SOL    HW158290   5.391   7.339   3.164
18761SOL    HW258291   5.331   7.411   3.284
18762SOL     OW58292   5.562   5.747   2.839
18762SOL    HW158293   5.589   5.662   2.798
18762SOL    HW258294   5.476   5.767   2.796
18763SOL     OW58295   3.975   5.907   2.570
18763SOL    HW158296   3.887   5.943   2.547
18763SOL    HW258297   3.967   5.892   2.666
18764SOL     OW58298   4.915   7.198   1.891
18764SOL    HW158299   4.910   7.103   1.914
18764SOL    HW258300   4.851   7.205   1.818
18765SOL     OW58301   4.550   6.576   3.229
18765SOL    HW158302   4.595   6.590   3.145
18765SOL    HW258303   4.539   6.667   3.262
18766SOL     OW58304   4.633   6.498   2.129
18766SOL    HW158305   4.708   6.541   2.083
18766SOL    HW258306   4.675   6.423   2.173
18767SOL     OW58307   5.189   7.177   1.903
18767SOL    HW158308   5.092   7.180   1.915
18767SOL    HW258309   5.206   7.266   1.871
18768SOL     OW58310   4.065   6.859   3.345
18768SOL    HW158311   4.063   6.931   3.280
18768SOL    HW258312   3.980   6.815   3.332
18769SOL     OW58313   5.330   6.889   3.139
18769SOL    HW158314   5.376   6.861   3.219
18769SOL    HW258315   5.274   6.961   3.174
18770SOL     OW58316   4.777   6.691   2.589
18770SOL    HW158317   4.709   6.639   2.634
18770SOL    HW258318   4.835   6.623   2.551
18771SOL     OW58319   4.749   5.814   2.849
18771SOL    HW158320   4.738   5.770   2.762
18771SOL    HW258321   4.752   5.737   2.908
18772SOL     OW58322   4.328   7.062   2.357
18772SOL    HW158323   4.375   7.023   2.282
18772SOL    HW258324   4.257   7.111   2.316
18773SOL     OW58325   5.428   5.970   3.230
18773SOL    HW158326   5.499   6.037   3.239
18773SOL    HW258327   5.476   5.902   3.178
18774SOL     OW58328   3.972   6.967   2.131
18774SOL    HW158329   3.875   6.953   2.120
18774SOL    HW258330   3.977   6.986   2.227
18775SOL     OW58331   3.844   6.585   3.557
18775SOL    HW158332   3.774   6.579   3.626
18775SOL    HW258333   3.925   6.563   3.609
18776SOL     OW58334   4.389   5.774   3.344
18776SOL    HW158335   4.476   5.740   3.315
18776SOL    HW258336   4.413   5.816   3.429
18777SOL     OW58337   3.826   5.942   1.903
18777SOL    HW158338   3.732   5.936   1.883
18777SOL    HW258339   3.855   6.006   1.836
18778SOL     OW58340   5.176   6.440   3.255
18778SOL    HW158341   5.128   6.502   3.198
18778SOL    HW258342   5.268   6.456   3.227
18779SOL     OW58343   3.767   5.755   2.150
18779SOL    HW158344   3.769   5.842   2.110
18779SOL    HW258345   3.853   5.720   2.122
18780SOL     OW58346   4.924   6.938   1.973
18780SOL    HW158347   4.844   6.885   1.981
18780SOL    HW258348   4.953   6.943   2.066
18781SOL     OW58349   4.346   6.402   3.295
18781SOL    HW158350   4.402   6.481   3.293
18781SOL    HW258351   4.415   6.333   3.306
18782SOL     OW58352   5.240   7.347   2.825
18782SOL    HW158353   5.270   7.401   2.751
18782SOL    HW258354   5.319   7.344   2.881
18783SOL     OW58355   4.458   6.138   3.564
18783SOL    HW158356   4.494   6.197   3.632
18783SOL    HW258357   4.468   6.049   3.600
18784SOL     OW58358   5.191   6.771   3.491
18784SOL    HW158359   5.180   6.777   3.588
18784SOL    HW258360   5.286   6.792   3.480
18785SOL     OW58361   4.109   7.316   3.420
18785SOL    HW158362   4.025   7.365   3.415
18785SOL    HW258363   4.078   7.233   3.460
18786SOL     OW58364   5.414   6.468   3.100
18786SOL    HW158365   5.399   6.381   3.058
18786SOL    HW258366   5.378   6.531   3.035
18787SOL     OW58367   4.924   5.910   2.340
18787SOL    HW158368   4.992   5.841   2.328
18787SOL    HW258369   4.965   5.965   2.411
18788SOL     OW58370   4.311   6.349   2.520
18788SOL    HW158371   4.339   6.442   2.515
18788SOL    HW258372   4.241   6.345   2.452
18789SOL     OW58373   5.486   5.966   3.497
18789SOL    HW158374   5.454   5.974   3.406
18789SOL    HW258375   5.414   5.914   3.537
18790SOL     OW58376   5.475   6.530   3.360
18790SOL    HW158377   5.462   6.625   3.351
18790SOL    HW258378   5.472   6.499   3.268
18791SOL     OW58379   4.576   6.952   1.892
18791SOL    HW158380   4.552   6.967   1.985
18791SOL    HW258381   4.600   7.040   1.859
18792SOL     OW58382   4.368   7.388   2.774
18792SOL    HW158383   4.361   7.484   2.762
18792SOL    HW258384   4.463   7.374   2.788
18793SOL     OW58385   4.594   6.526   2.719
18793SOL    HW158386   4.649   6.460   2.764
18793SOL    HW258387   4.571   6.588   2.791
18794SOL     OW58388   4.821   6.598   1.962
18794SOL    HW158389   4.784   6.640   1.883
18794SOL    HW258390   4.877   6.528   1.923
18795SOL     OW58391   5.590   7.150   2.689
18795SOL    HW158392   5.498   7.145   2.661
18795SOL    HW258393   5.597   7.079   2.754
18796SOL     OW58394   3.969   6.901   3.731
18796SOL    HW158395   3.893   6.843   3.717
18796SOL    HW258396   3.957   6.924   3.825
18797SOL     OW58397   3.811   6.835   2.525
18797SOL    HW158398   3.816   6.779   2.604
18797SOL    HW258399   3.891   6.810   2.478
18798SOL     OW58400   4.400   6.984   3.477
18798SOL    HW158401   4.325   6.933   3.512
18798SOL    HW258402   4.390   7.070   3.523
18799SOL     OW58403   5.550   5.762   3.102
18799SOL    HW158404   5.553   5.666   3.116
18799SOL    HW258405   5.560   5.766   3.004
18800SOL     OW58406   4.192   6.013   2.422
18800SOL    HW158407   4.216   5.956   2.347
18800SOL    HW258408   4.119   5.965   2.464
18801SOL     OW58409   5.437   7.074   2.946
18801SOL    HW158410   5.352   7.056   2.904
18801SOL    HW258411   5.434   7.011   3.019
18802SOL     OW58412   4.039   6.135   3.147
18802SOL    HW158413   4.097   6.088   3.211
18802SOL    HW258414   4.067   6.097   3.061
18803SOL     OW58415   4.549   7.174   2.534
18803SOL    HW158416   4.537   7.211   2.445
18803SOL    HW258417   4.466   7.126   2.546
18804SOL     OW58418   5.153   5.830   2.956
18804SOL    HW158419   5.183   5.748   2.997
18804SOL    HW258420   5.106   5.875   3.030
18805SOL     OW58421   4.740   5.592   3.018
18805SOL    HW158422   4.690   5.526   2.966
18805SOL    HW258423   4.829   5.550   3.018
18806SOL     OW58424   4.514   6.924   2.174
18806SOL    HW158425   4.480   6.833   2.173
18806SOL    HW258426   4.584   6.920   2.240
18807SOL     OW58427   4.328   7.142   3.132
18807SOL    HW158428   4.328   7.228   3.179
18807SOL    HW258429   4.421   7.139   3.105
18808SOL     OW58430   5.052   5.625   2.045
18808SOL    HW158431   5.057   5.560   1.974
18808SOL    HW258432   4.962   5.604   2.080
18809SOL     OW58433   5.009   6.067   2.544
18809SOL    HW158434   4.945   6.140   2.544
18809SOL    HW258435   4.999   6.029   2.633
18810SOL     OW58436   5.323   5.790   2.727
18810SOL    HW158437   5.252   5.807   2.791
18810SOL    HW258438   5.320   5.869   2.671
18811SOL     OW58439   3.768   6.664   2.173
18811SOL    HW158440   3.863   6.649   2.161
18811SOL    HW258441   3.738   6.572   2.189
18812SOL     OW58442   4.591   7.234   2.190
18812SOL    HW158443   4.513   7.220   2.133
18812SOL    HW258444   4.569   7.315   2.240
18813SOL     OW58445   3.955   6.228   3.855
18813SOL    HW158446   3.864   6.219   3.885
18813SOL    HW258447   3.952   6.205   3.761
18814SOL     OW58448   3.963   5.846   4.690
18814SOL    HW158449   3.980   5.841   4.786
18814SOL    HW258450   3.871   5.812   4.688
18815SOL     OW58451   3.723   5.997   4.340
18815SOL    HW158452   3.643   6.021   4.391
18815SOL    HW258453   3.701   5.907   4.313
18816SOL     OW58454   4.307   6.871   4.877
18816SOL    HW158455   4.213   6.860   4.899
18816SOL    HW258456   4.325   6.955   4.924
18817SOL     OW58457   5.274   7.108   4.452
18817SOL    HW158458   5.243   7.083   4.541
18817SOL    HW258459   5.194   7.094   4.399
18818SOL     OW58460   4.828   6.283   4.414
18818SOL    HW158461   4.881   6.364   4.404
18818SOL    HW258462   4.789   6.294   4.502
18819SOL     OW58463   5.490   6.195   3.960
18819SOL    HW158464   5.475   6.189   3.863
18819SOL    HW258465   5.435   6.123   3.994
18820SOL     OW58466   4.468   6.718   4.721
18820SOL    HW158467   4.411   6.753   4.793
18820SOL    HW258468   4.514   6.799   4.695
18821SOL     OW58469   4.408   6.608   4.379
18821SOL    HW158470   4.475   6.583   4.445
18821SOL    HW258471   4.345   6.660   4.433
18822SOL     OW58472   4.393   6.760   5.555
18822SOL    HW158473   4.464   6.826   5.551
18822SOL    HW258474   4.321   6.801   5.504
18823SOL     OW58475   4.048   7.029   4.749
18823SOL    HW158476   4.003   6.961   4.699
18823SOL    HW258477   4.107   7.073   4.686
18824SOL     OW58478   5.207   7.087   5.062
18824SOL    HW158479   5.230   7.163   5.118
18824SOL    HW258480   5.168   7.023   5.126
18825SOL     OW58481   5.278   6.025   4.435
18825SOL    HW158482   5.238   6.100   4.390
18825SOL    HW258483   5.336   6.066   4.500
18826SOL     OW58484   3.951   7.299   4.201
18826SOL    HW158485   3.977   7.378   4.253
18826SOL    HW258486   4.013   7.305   4.126
18827SOL     OW58487   4.848   6.912   5.364
18827SOL    HW158488   4.912   6.916   5.435
18827SOL    HW258489   4.783   6.849   5.396
18828SOL     OW58490   3.968   7.017   4.251
18828SOL    HW158491   3.965   7.114   4.256
18828SOL    HW258492   3.899   6.991   4.314
18829SOL     OW58493   4.006   6.675   4.631
18829SOL    HW158494   4.017   6.597   4.688
18829SOL    HW258495   3.948   6.730   4.687
18830SOL     OW58496   4.300   6.580   3.847
18830SOL    HW158497   4.351   6.634   3.783
18830SOL    HW258498   4.338   6.610   3.931
18831SOL     OW58499   3.835   6.241   4.284
18831SOL    HW158500   3.802   6.151   4.306
18831SOL    HW258501   3.837   6.284   4.372
18832SOL     OW58502   5.570   7.338   4.058
18832SOL    HW158503   5.636   7.316   4.126
18832SOL    HW258504   5.591   7.431   4.040
18833SOL     OW58505   3.779   7.168   3.840
18833SOL    HW158506   3.759   7.076   3.862
18833SOL    HW258507   3.753   7.216   3.921
18834SOL     OW58508   5.379   6.484   4.355
18834SOL    HW158509   5.474   6.467   4.352
18834SOL    HW258510   5.367   6.539   4.275
18835SOL     OW58511   5.371   6.697   4.166
18835SOL    HW158512   5.462   6.702   4.133
18835SOL    HW258513   5.373   6.760   4.241
18836SOL     OW58514   3.847   6.380   5.268
18836SOL    HW158515   3.926   6.330   5.295
18836SOL    HW258516   3.838   6.444   5.339
18837SOL     OW58517   4.347   6.997   4.488
18837SOL    HW158518   4.307   6.910   4.507
18837SOL    HW258519   4.322   7.007   4.394
18838SOL     OW58520   4.553   5.584   4.197
18838SOL    HW158521   4.591   5.674   4.204
18838SOL    HW258522   4.460   5.600   4.222
18839SOL     OW58523   3.916   6.548   4.971
18839SOL    HW158524   4.008   6.518   4.962
18839SOL    HW258525   3.870   6.468   4.999
18840SOL     OW58526   5.278   6.535   3.906
18840SOL    HW158527   5.195   6.492   3.936
18840SOL    HW258528   5.309   6.574   3.989
18841SOL     OW58529   4.991   7.391   5.302
18841SOL    HW158530   4.903   7.428   5.293
18841SOL    HW258531   4.976   7.298   5.276
18842SOL     OW58532   5.190   6.992   4.691
18842SOL    HW158533   5.122   7.004   4.761
18842SOL    HW258534   5.168   6.904   4.655
18843SOL     OW58535   5.388   7.318   4.319
18843SOL    HW158536   5.379   7.273   4.234
18843SOL    HW258537   5.353   7.251   4.380
18844SOL     OW58538   4.316   6.304   3.984
18844SOL    HW158539   4.317   6.391   3.941
18844SOL    HW258540   4.247   6.315   4.051
18845SOL     OW58541   5.015   5.928   4.652
18845SOL    HW158542   4.926   5.889   4.648
18845SOL    HW258543   5.058   5.877   4.723
18846SOL     OW58544   5.301   7.228   4.033
18846SOL    HW158545   5.393   7.258   4.036
18846SOL    HW258546   5.289   7.219   3.937
18847SOL     OW58547   4.734   6.002   4.955
18847SOL    HW158548   4.687   6.015   5.038
18847SOL    HW258549   4.665   5.976   4.894
18848SOL     OW58550   4.771   6.263   4.139
18848SOL    HW158551   4.783   6.282   4.234
18848SOL    HW258552   4.682   6.222   4.138
18849SOL     OW58553   3.840   6.406   4.506
18849SOL    HW158554   3.906   6.392   4.576
18849SOL    HW258555   3.811   6.496   4.525
18850SOL     OW58556   4.597   5.973   3.921
18850SOL    HW158557   4.642   6.029   3.855
18850SOL    HW258558   4.632   5.887   3.898
18851SOL     OW58559   5.077   6.727   4.282
18851SOL    HW158560   5.156   6.721   4.226
18851SOL    HW258561   5.025   6.795   4.236
18852SOL     OW58562   4.267   5.800   4.602
18852SOL    HW158563   4.264   5.799   4.700
18852SOL    HW258564   4.268   5.895   4.584
18853SOL     OW58565   4.710   7.038   4.192
18853SOL    HW158566   4.669   7.105   4.134
18853SOL    HW258567   4.703   7.080   4.280
18854SOL     OW58568   4.065   7.403   4.583
18854SOL    HW158569   4.116   7.321   4.602
18854SOL    HW258570   4.131   7.471   4.599
18855SOL     OW58571   5.515   6.633   4.578
18855SOL    HW158572   5.451   6.620   4.507
18855SOL    HW258573   5.458   6.669   4.649
18856SOL     OW58574   4.943   7.143   5.208
18856SOL    HW158575   4.972   7.059   5.246
18856SOL    HW258576   4.903   7.114   5.126
18857SOL     OW58577   4.026   6.535   3.968
18857SOL    HW158578   4.099   6.566   3.913
18857SOL    HW258579   4.005   6.449   3.929
18858SOL     OW58580   5.198   6.309   4.456
18858SOL    HW158581   5.201   6.277   4.548
18858SOL    HW258582   5.272   6.372   4.451
18859SOL     OW58583   4.178   6.880   5.436
18859SOL    HW158584   4.139   6.871   5.345
18859SOL    HW258585   4.097   6.885   5.490
18860SOL     OW58586   4.830   7.365   3.961
18860SOL    HW158587   4.762   7.313   4.008
18860SOL    HW258588   4.841   7.314   3.880
18861SOL     OW58589   5.353   6.954   3.812
18861SOL    HW158590   5.310   7.037   3.786
18861SOL    HW258591   5.287   6.887   3.787
18862SOL     OW58592   4.173   7.332   4.040
18862SOL    HW158593   4.222   7.379   4.110
18862SOL    HW258594   4.244   7.295   3.985
18863SOL     OW58595   5.111   5.678   4.165
18863SOL    HW158596   5.120   5.642   4.076
18863SOL    HW258597   5.204   5.691   4.191
18864SOL     OW58598   4.696   7.290   4.592
18864SOL    HW158599   4.722   7.228   4.661
18864SOL    HW258600   4.641   7.235   4.533
18865SOL     OW58601   4.091   6.275   4.187
18865SOL    HW158602   4.120   6.187   4.217
18865SOL    HW258603   3.997   6.272   4.211
18866SOL     OW58604   4.342   5.714   3.831
18866SOL    HW158605   4.423   5.667   3.850
18866SOL    HW258606   4.300   5.658   3.762
18867SOL     OW58607   4.615   7.157   4.909
18867SOL    HW158608   4.590   7.111   4.827
18867SOL    HW258609   4.639   7.084   4.967
18868SOL     OW58610   4.555   7.018   4.665
18868SOL    HW158611   4.635   6.984   4.619
18868SOL    HW258612   4.486   7.012   4.598
18869SOL     OW58613   4.672   6.083   4.643
18869SOL    HW158614   4.642   6.077   4.550
18869SOL    HW258615   4.689   5.990   4.665
18870SOL     OW58616   4.283   5.636   4.224
18870SOL    HW158617   4.212   5.647   4.290
18870SOL    HW258618   4.270   5.717   4.170
18871SOL     OW58619   5.165   6.766   3.756
18871SOL    HW158620   5.185   6.690   3.813
18871SOL    HW258621   5.075   6.791   3.782
18872SOL     OW58622   4.004   5.628   3.911
18872SOL    HW158623   4.061   5.703   3.889
18872SOL    HW258624   4.068   5.568   3.954
18873SOL     OW58625   4.653   5.832   4.199
18873SOL    HW158626   4.631   5.891   4.126
18873SOL    HW258627   4.749   5.850   4.209
18874SOL     OW58628   4.974   7.146   4.506
18874SOL    HW158629   4.955   7.218   4.445
18874SOL    HW258630   5.008   7.192   4.584
18875SOL     OW58631   4.195   6.770   4.452
18875SOL    HW158632   4.128   6.735   4.515
18875SOL    HW258633   4.159   6.739   4.366
18876SOL     OW58634   4.983   7.401   4.316
18876SOL    HW158635   5.034   7.476   4.281
18876SOL    HW258636   4.926   7.443   4.381
18877SOL     OW58637   4.781   6.112   3.750
18877SOL    HW158638   4.739   6.199   3.734
18877SOL    HW258639   4.846   6.130   3.820
18878SOL     OW58640   4.279   5.792   4.871
18878SOL    HW158641   4.317   5.724   4.927
18878SOL    HW258642   4.192   5.808   4.911
18879SOL     OW58643   4.599   6.057   4.387
18879SOL    HW158644   4.550   6.106   4.319
18879SOL    HW258645   4.602   5.968   4.352
18880SOL     OW58646   4.796   5.649   4.487
18880SOL    HW158647   4.726   5.646   4.421
18880SOL    HW258648   4.772   5.573   4.544
18881SOL     OW58649   5.157   6.744   4.592
18881SOL    HW158650   5.086   6.701   4.642
18881SOL    HW258651   5.136   6.724   4.500
18882SOL     OW58652   5.191   6.166   4.702
18882SOL    HW158653   5.126   6.093   4.701
18882SOL    HW258654   5.221   6.167   4.793
18883SOL     OW58655   5.556   6.419   4.106
18883SOL    HW158656   5.610   6.371   4.172
18883SOL    HW258657   5.537   6.347   4.044
18884SOL     OW58658   4.220   7.009   3.851
18884SOL    HW158659   4.141   6.997   3.907
18884SOL    HW258660   4.203   6.945   3.780
18885SOL     OW58661   5.394   6.863   4.388
18885SOL    HW158662   5.491   6.866   4.396
18885SOL    HW258663   5.367   6.952   4.417
18886SOL     OW58664   5.127   6.181   3.773
18886SOL    HW158665   5.082   6.141   3.850
18886SOL    HW258666   5.220   6.167   3.796
18887SOL     OW58667   4.242   5.833   4.052
18887SOL    HW158668   4.284   5.801   3.970
18887SOL    HW258669   4.207   5.918   4.020
18888SOL     OW58670   4.804   6.918   5.057
18888SOL    HW158671   4.717   6.899   5.100
18888SOL    HW258672   4.864   6.889   5.128
18889SOL     OW58673   5.337   7.234   5.358
18889SOL    HW158674   5.336   7.274   5.269
18889SOL    HW258675   5.428   7.198   5.361
18890SOL     OW58676   4.824   6.806   4.808
18890SOL    HW158677   4.790   6.844   4.890
18890SOL    HW258678   4.795   6.867   4.739
18891SOL     OW58679   5.378   6.756   4.780
18891SOL    HW158680   5.357   6.704   4.859
18891SOL    HW258681   5.288   6.769   4.743
18892SOL     OW58682   4.622   5.693   5.108
18892SOL    HW158683   4.668   5.657   5.030
18892SOL    HW258684   4.691   5.698   5.174
18893SOL     OW58685   4.441   6.646   4.082
18893SOL    HW158686   4.428   6.631   4.177
18893SOL    HW258687   4.514   6.585   4.061
18894SOL     OW58688   4.160   6.387   5.004
18894SOL    HW158689   4.199   6.423   5.085
18894SOL    HW258690   4.113   6.309   5.036
18895SOL     OW58691   5.002   5.988   4.974
18895SOL    HW158692   4.997   6.048   5.050
18895SOL    HW258693   4.908   5.986   4.949
18896SOL     OW58694   4.078   6.702   4.209
18896SOL    HW158695   4.064   6.767   4.140
18896SOL    HW258696   4.082   6.619   4.160
18897SOL     OW58697   4.274   6.128   4.572
18897SOL    HW158698   4.294   6.196   4.505
18897SOL    HW258699   4.331   6.156   4.647
18898SOL     OW58700   4.946   6.923   4.109
18898SOL    HW158701   4.997   6.994   4.151
18898SOL    HW258702   4.855   6.947   4.136
18899SOL     OW58703   5.008   7.039   4.895
18899SOL    HW158704   5.081   7.043   4.961
18899SOL    HW258705   4.942   6.985   4.941
18900SOL     OW58706   5.293   6.215   4.190
18900SOL    HW158707   5.254   6.268   4.261
18900SOL    HW258708   5.349   6.279   4.144
18901SOL     OW58709   4.077   7.000   5.002
18901SOL    HW158710   4.076   7.025   4.907
18901SOL    HW258711   4.111   7.079   5.046
18902SOL     OW58712   4.290   6.477   4.767
18902SOL    HW158713   4.339   6.560   4.780
18902SOL    HW258714   4.264   6.452   4.858
18903SOL     OW58715   5.017   6.443   4.757
18903SOL    HW158716   4.957   6.400   4.695
18903SOL    HW258717   5.090   6.381   4.764
18904SOL     OW58718   4.941   6.109   3.978
18904SOL    HW158719   4.951   6.030   4.035
18904SOL    HW258720   4.891   6.167   4.038
18905SOL     OW58721   4.012   5.804   4.962
18905SOL    HW158722   3.967   5.841   5.039
18905SOL    HW258723   3.994   5.708   4.971
18906SOL     OW58724   4.429   6.228   4.766
18906SOL    HW158725   4.518   6.210   4.732
18906SOL    HW258726   4.416   6.324   4.758
18907SOL     OW58727   5.395   6.520   5.498
18907SOL    HW158728   5.365   6.612   5.492
18907SOL    HW258729   5.404   6.508   5.593
18908SOL     OW58730   4.031   5.654   4.331
18908SOL    HW158731   4.007   5.746   4.354
18908SOL    HW258732   4.037   5.614   4.420
18909SOL     OW58733   5.313   5.973   4.063
18909SOL    HW158734   5.345   5.900   4.119
18909SOL    HW258735   5.301   6.045   4.128
18910SOL     OW58736   4.756   6.334   4.680
18910SOL    HW158737   4.768   6.347   4.775
18910SOL    HW258738   4.733   6.239   4.674
18911SOL     OW58739   4.712   7.145   5.450
18911SOL    HW158740   4.647   7.213   5.422
18911SOL    HW258741   4.734   7.095   5.370
18912SOL     OW58742   5.598   7.187   5.306
18912SOL    HW158743   5.595   7.130   5.228
18912SOL    HW258744   5.636   7.125   5.374
18913SOL     OW58745   4.075   6.446   5.529
18913SOL    HW158746   4.158   6.492   5.548
18913SOL    HW258747   4.098   6.380   5.460
18914SOL     OW58748   5.220   5.839   3.844
18914SOL    HW158749   5.158   5.776   3.884
18914SOL    HW258750   5.260   5.883   3.922
18915SOL     OW58751   4.995   6.420   3.748
18915SOL    HW158752   5.039   6.333   3.759
18915SOL    HW258753   5.034   6.448   3.663
18916SOL     OW58754   4.796   6.951   4.567
18916SOL    HW158755   4.816   6.877   4.508
18916SOL    HW258756   4.868   7.015   4.551
18917SOL     OW58757   4.021   6.382   4.707
18917SOL    HW158758   4.116   6.400   4.719
18917SOL    HW258759   4.018   6.285   4.719
18918SOL     OW58760   4.033   6.114   4.694
18918SOL    HW158761   4.024   6.017   4.694
18918SOL    HW258762   4.119   6.126   4.648
18919SOL     OW58763   3.733   6.901   3.906
18919SOL    HW158764   3.639   6.910   3.874
18919SOL    HW258765   3.729   6.814   3.951
18920SOL     OW58766   3.810   7.357   4.672
18920SOL    HW158767   3.778   7.278   4.623
18920SOL    HW258768   3.904   7.361   4.646
18921SOL     OW58769   4.234   7.200   4.629
18921SOL    HW158770   4.306   7.266   4.631
18921SOL    HW258771   4.281   7.123   4.592
18922SOL     OW58772   3.764   6.123   4.864
18922SOL    HW158773   3.836   6.118   4.799
18922SOL    HW258774   3.812   6.118   4.947
18923SOL     OW58775   4.526   6.160   4.105
18923SOL    HW158776   4.542   6.095   4.034
18923SOL    HW258777   4.449   6.208   4.071
18924SOL     OW58778   4.674   7.332   5.176
18924SOL    HW158779   4.637   7.254   5.134
18924SOL    HW258780   4.628   7.337   5.262
18925SOL     OW58781   4.164   6.068   3.916
18925SOL    HW158782   4.233   6.135   3.931
18925SOL    HW258783   4.085   6.125   3.903
18926SOL     OW58784   3.836   6.709   5.194
18926SOL    HW158785   3.843   6.664   5.281
18926SOL    HW258786   3.859   6.639   5.130
18927SOL     OW58787   5.072   6.706   4.855
18927SOL    HW158788   5.050   6.611   4.854
18927SOL    HW258789   4.984   6.747   4.863
18928SOL     OW58790   5.035   6.453   4.011
18928SOL    HW158791   4.959   6.415   4.057
18928SOL    HW258792   5.009   6.448   3.917
18929SOL     OW58793   5.488   7.328   4.852
18929SOL    HW158794   5.559   7.346   4.788
18929SOL    HW258795   5.473   7.232   4.838
18930SOL     OW58796   4.957   7.300   4.847
18930SOL    HW158797   5.047   7.329   4.833
18930SOL    HW258798   4.967   7.204   4.866
18931SOL     OW58799   3.827   6.834   4.763
18931SOL    HW158800   3.810   6.851   4.857
18931SOL    HW258801   3.744   6.793   4.737
18932SOL     OW58802   5.398   5.731   4.178
18932SOL    HW158803   5.482   5.727   4.129
18932SOL    HW258804   5.405   5.653   4.236
18933SOL     OW58805   5.085   7.155   4.201
18933SOL    HW158806   5.150   7.175   4.131
18933SOL    HW258807   5.049   7.243   4.223
18934SOL     OW58808   4.987   6.494   4.396
18934SOL    HW158809   5.067   6.443   4.413
18934SOL    HW258810   5.022   6.572   4.346
18935SOL     OW58811   4.553   6.888   5.159
18935SOL    HW158812   4.518   6.898   5.249
18935SOL    HW258813   4.478   6.849   5.112
18936SOL     OW58814   4.389   7.211   3.882
18936SOL    HW158815   4.406   7.216   3.786
18936SOL    HW258816   4.331   7.131   3.884
18937SOL     OW58817   5.340   7.329   5.107
18937SOL    HW158818   5.393   7.335   5.026
18937SOL    HW258819   5.336   7.422   5.138
18938SOL     OW58820   3.975   5.900   4.417
18938SOL    HW158821   3.893   5.951   4.407
18938SOL    HW258822   3.984   5.893   4.514
18939SOL     OW58823   4.913   7.208   3.749
18939SOL    HW158824   4.925   7.115   3.771
18939SOL    HW258825   4.853   7.205   3.672
18940SOL     OW58826   4.639   6.489   4.001
18940SOL    HW158827   4.711   6.532   3.951
18940SOL    HW258828   4.683   6.414   4.043
18941SOL     OW58829   5.266   7.214   3.760
18941SOL    HW158830   5.169   7.217   3.752
18941SOL    HW258831   5.293   7.220   3.666
18942SOL     OW58832   4.071   6.842   5.203
18942SOL    HW158833   4.066   6.908   5.130
18942SOL    HW258834   3.980   6.810   5.206
18943SOL     OW58835   4.767   6.703   4.428
18943SOL    HW158836   4.699   6.654   4.478
18943SOL    HW258837   4.827   6.633   4.401
18944SOL     OW58838   4.728   5.811   4.702
18944SOL    HW158839   4.743   5.756   4.623
18944SOL    HW258840   4.742   5.747   4.775
18945SOL     OW58841   4.337   7.071   4.228
18945SOL    HW158842   4.384   7.026   4.156
18945SOL    HW258843   4.263   7.113   4.182
18946SOL     OW58844   3.979   6.964   3.995
18946SOL    HW158845   3.883   6.953   3.983
18946SOL    HW258846   3.983   6.985   4.091
18947SOL     OW58847   3.862   6.613   5.442
18947SOL    HW158848   3.780   6.593   5.491
18947SOL    HW258849   3.931   6.570   5.496
18948SOL     OW58850   3.832   5.916   3.733
18948SOL    HW158851   3.737   5.925   3.733
18948SOL    HW258852   3.860   5.994   3.680
18949SOL     OW58853   3.765   5.753   4.020
18949SOL    HW158854   3.762   5.844   3.987
18949SOL    HW258855   3.850   5.722   3.984
18950SOL     OW58856   4.927   6.941   3.835
18950SOL    HW158857   4.837   6.907   3.840
18950SOL    HW258858   4.951   6.944   3.930
18951SOL     OW58859   5.213   7.400   4.676
18951SOL    HW158860   5.275   7.448   4.620
18951SOL    HW258861   5.270   7.353   4.738
18952SOL     OW58862   4.930   5.900   4.174
18952SOL    HW158863   4.999   5.832   4.179
18952SOL    HW258864   4.952   5.958   4.250
18953SOL     OW58865   4.316   6.334   4.364
18953SOL    HW158866   4.348   6.426   4.363
18953SOL    HW258867   4.235   6.339   4.311
18954SOL     OW58868   4.585   6.948   3.752
18954SOL    HW158869   4.552   6.972   3.841
18954SOL    HW258870   4.612   7.033   3.715
18955SOL     OW58871   4.410   7.401   4.612
18955SOL    HW158872   4.391   7.497   4.616
18955SOL    HW258873   4.497   7.394   4.652
18956SOL     OW58874   4.595   6.535   4.564
18956SOL    HW158875   4.640   6.464   4.611
18956SOL    HW258876   4.560   6.591   4.636
18957SOL     OW58877   4.809   6.597   3.819
18957SOL    HW158878   4.781   6.644   3.739
18957SOL    HW258879   4.866   6.527   3.782
18958SOL     OW58880   5.582   7.135   4.581
18958SOL    HW158881   5.493   7.133   4.543
18958SOL    HW258882   5.573   7.074   4.657
18959SOL     OW58883   3.957   6.916   5.594
18959SOL    HW158884   3.904   6.878   5.523
18959SOL    HW258885   3.899   6.901   5.670
18960SOL     OW58886   3.810   6.846   4.402
18960SOL    HW158887   3.787   6.782   4.471
18960SOL    HW258888   3.892   6.808   4.367
18961SOL     OW58889   4.416   7.004   5.383
18961SOL    HW158890   4.332   6.955   5.389
18961SOL    HW258891   4.386   7.090   5.349
18962SOL     OW58892   4.163   6.017   4.259
18962SOL    HW158893   4.209   5.949   4.208
18962SOL    HW258894   4.111   5.966   4.323
18963SOL     OW58895   5.438   7.067   4.814
18963SOL    HW158896   5.355   7.025   4.786
18963SOL    HW258897   5.438   7.046   4.908
18964SOL     OW58898   4.557   7.170   4.393
18964SOL    HW158899   4.534   7.213   4.309
18964SOL    HW258900   4.476   7.121   4.413
18965SOL     OW58901   5.140   5.797   4.849
18965SOL    HW158902   5.216   5.770   4.903
18965SOL    HW258903   5.096   5.861   4.908
18966SOL     OW58904   4.763   5.601   4.889
18966SOL    HW158905   4.709   5.523   4.874
18966SOL    HW258906   4.853   5.563   4.888
18967SOL     OW58907   4.511   6.919   4.038
18967SOL    HW158908   4.487   6.825   4.046
18967SOL    HW258909   4.587   6.926   4.098
18968SOL     OW58910   4.342   7.114   5.001
18968SOL    HW158911   4.282   7.186   5.030
18968SOL    HW258912   4.421   7.163   4.977
18969SOL     OW58913   5.047   5.627   3.902
18969SOL    HW158914   5.060   5.551   3.844
18969SOL    HW258915   4.966   5.601   3.950
18970SOL     OW58916   4.982   6.049   4.387
18970SOL    HW158917   4.935   6.133   4.403
18970SOL    HW258918   5.016   6.024   4.474
18971SOL     OW58919   5.301   5.814   4.601
18971SOL    HW158920   5.227   5.804   4.662
18971SOL    HW258921   5.272   5.878   4.534
18972SOL     OW58922   3.760   6.657   4.026
18972SOL    HW158923   3.853   6.646   3.999
18972SOL    HW258924   3.739   6.565   4.050
18973SOL     OW58925   4.605   7.242   4.049
18973SOL    HW158926   4.523   7.230   3.998
18973SOL    HW258927   4.584   7.316   4.109
18974SOL     OW58928   3.956   6.254   5.733
18974SOL    HW158929   3.876   6.201   5.743
18974SOL    HW258930   3.971   6.251   5.638
18975SOL     OW58931   3.909   5.893   6.609
18975SOL    HW158932   3.947   5.862   6.693
18975SOL    HW258933   3.866   5.816   6.572
18976SOL     OW58934   5.236   7.122   6.301
18976SOL    HW158935   5.183   7.128   6.382
18976SOL    HW258936   5.169   7.131   6.229
18977SOL     OW58937   4.837   6.292   6.299
18977SOL    HW158938   4.890   6.370   6.317
18977SOL    HW258939   4.801   6.263   6.384
18978SOL     OW58940   5.466   6.238   5.825
18978SOL    HW158941   5.455   6.198   5.738
18978SOL    HW258942   5.481   6.160   5.883
18979SOL     OW58943   4.558   6.437   7.410
18979SOL    HW158944   4.578   6.474   7.496
18979SOL    HW258945   4.645   6.419   7.374
18980SOL     OW58946   4.418   6.749   7.418
18980SOL    HW158947   4.479   6.825   7.419
18980SOL    HW258948   4.351   6.775   7.352
18981SOL     OW58949   5.184   7.057   6.954
18981SOL    HW158950   5.176   7.153   6.941
18981SOL    HW258951   5.101   7.034   6.998
18982SOL     OW58952   4.166   5.966   7.128
18982SOL    HW158953   4.244   5.936   7.078
18982SOL    HW258954   4.094   5.924   7.079
18983SOL     OW58955   4.836   6.958   7.291
18983SOL    HW158956   4.919   6.937   7.335
18983SOL    HW258957   4.819   6.874   7.244
18984SOL     OW58958   4.355   7.387   7.034
18984SOL    HW158959   4.263   7.364   7.059
18984SOL    HW258960   4.358   7.483   7.048
18985SOL     OW58961   4.282   6.581   5.721
18985SOL    HW158962   4.316   6.644   5.653
18985SOL    HW258963   4.356   6.580   5.783
18986SOL     OW58964   5.348   5.680   7.070
18986SOL    HW158965   5.271   5.719   7.026
18986SOL    HW258966   5.353   5.732   7.152
18987SOL     OW58967   5.557   7.349   5.931
18987SOL    HW158968   5.622   7.325   5.998
18987SOL    HW258969   5.590   7.436   5.901
18988SOL     OW58970   5.517   6.579   6.248
18988SOL    HW158971   5.532   6.502   6.191
18988SOL    HW258972   5.433   6.609   6.208
18989SOL     OW58973   5.353   6.695   6.019
18989SOL    HW158974   5.440   6.696   5.976
18989SOL    HW258975   5.357   6.774   6.075
18990SOL     OW58976   3.839   6.349   7.177
18990SOL    HW158977   3.935   6.348   7.162
18990SOL    HW258978   3.828   6.435   7.219
18991SOL     OW58979   4.544   5.607   6.097
18991SOL    HW158980   4.609   5.670   6.062
18991SOL    HW258981   4.462   5.653   6.080
18992SOL     OW58982   5.237   6.549   5.781
18992SOL    HW158983   5.161   6.498   5.816
18992SOL    HW258984   5.280   6.580   5.862
18993SOL     OW58985   4.935   7.381   7.220
18993SOL    HW158986   4.929   7.452   7.153
18993SOL    HW258987   4.942   7.302   7.166
18994SOL     OW58988   4.053   5.844   7.357
18994SOL    HW158989   4.108   5.916   7.323
18994SOL    HW258990   4.008   5.887   7.432
18995SOL     OW58991   5.179   6.992   6.561
18995SOL    HW158992   5.091   7.035   6.566
18995SOL    HW258993   5.154   6.906   6.525
18996SOL     OW58994   5.393   7.299   6.171
18996SOL    HW158995   5.377   7.279   6.078
18996SOL    HW258996   5.329   7.240   6.215
18997SOL     OW58997   5.308   7.231   5.886
18997SOL    HW158998   5.396   7.272   5.881
18997SOL    HW258999   5.282   7.228   5.793
18998SOL     OW59000   5.140   6.066   7.330
18998SOL    HW159001   5.054   6.082   7.289
18998SOL    HW259002   5.167   5.984   7.287
18999SOL     OW59003   3.874   7.482   7.184
18999SOL    HW159004   3.858   7.436   7.269
18999SOL    HW259005   3.829   7.426   7.119
19000SOL     OW59006   5.470   6.196   7.403
19000SOL    HW159007   5.412   6.261   7.358
19000SOL    HW259008   5.468   6.121   7.341
19001SOL     OW59009   5.083   6.740   6.152
19001SOL    HW159010   5.157   6.716   6.094
19001SOL    HW259011   5.033   6.800   6.093
19002SOL     OW59012   4.717   7.006   6.050
19002SOL    HW159013   4.747   7.098   6.029
19002SOL    HW259014   4.727   7.001   6.145
19003SOL     OW59015   5.553   6.663   6.511
19003SOL    HW159016   5.536   6.652   6.415
19003SOL    HW259017   5.486   6.605   6.549
19004SOL     OW59018   4.013   6.535   5.799
19004SOL    HW159019   4.107   6.552   5.783
19004SOL    HW259020   4.003   6.444   5.766
19005SOL     OW59021   4.197   6.833   7.283
19005SOL    HW159022   4.153   6.851   7.197
19005SOL    HW259023   4.123   6.852   7.344
19006SOL     OW59024   3.900   5.876   7.097
19006SOL    HW159025   3.846   5.955   7.077
19006SOL    HW259026   3.913   5.884   7.193
19007SOL     OW59027   5.377   6.977   5.673
19007SOL    HW159028   5.321   7.049   5.642
19007SOL    HW259029   5.314   6.902   5.668
19008SOL     OW59030   5.116   5.772   5.973
19008SOL    HW159031   5.099   5.707   5.903
19008SOL    HW259032   5.202   5.742   6.006
19009SOL     OW59033   5.281   5.819   7.310
19009SOL    HW159034   5.273   5.829   7.407
19009SOL    HW259035   5.203   5.764   7.290
19010SOL     OW59036   4.522   5.887   7.362
19010SOL    HW159037   4.587   5.815   7.349
19010SOL    HW259038   4.438   5.841   7.357
19011SOL     OW59039   5.192   6.794   5.677
19011SOL    HW159040   5.194   6.700   5.700
19011SOL    HW259041   5.103   6.809   5.642
19012SOL     OW59042   4.672   5.831   6.024
19012SOL    HW159043   4.630   5.907   6.067
19012SOL    HW259044   4.767   5.850   6.041
19013SOL     OW59045   3.798   6.127   7.024
19013SOL    HW159046   3.870   6.132   6.958
19013SOL    HW259047   3.796   6.218   7.061
19014SOL     OW59048   4.683   5.635   6.341
19014SOL    HW159049   4.638   5.615   6.258
19014SOL    HW259050   4.622   5.600   6.406
19015SOL     OW59051   5.152   6.736   6.444
19015SOL    HW159052   5.079   6.674   6.432
19015SOL    HW259053   5.166   6.766   6.352
19016SOL     OW59054   5.569   6.428   5.977
19016SOL    HW159055   5.623   6.364   6.025
19016SOL    HW259056   5.527   6.370   5.910
19017SOL     OW59057   4.197   6.960   5.745
19017SOL    HW159058   4.129   6.941   5.812
19017SOL    HW259059   4.155   6.923   5.666
19018SOL     OW59060   5.391   6.876   6.249
19018SOL    HW159061   5.484   6.900   6.241
19018SOL    HW259062   5.343   6.959   6.256
19019SOL     OW59063   5.464   6.822   7.143
19019SOL    HW159064   5.546   6.773   7.156
19019SOL    HW259065   5.486   6.910   7.178
19020SOL     OW59066   5.332   7.222   7.243
19020SOL    HW159067   5.326   7.239   7.148
19020SOL    HW259068   5.404   7.157   7.245
19021SOL     OW59069   5.311   6.708   6.657
19021SOL    HW159070   5.250   6.742   6.724
19021SOL    HW259071   5.254   6.710   6.576
19022SOL     OW59072   4.477   6.694   5.972
19022SOL    HW159073   4.408   6.650   6.023
19022SOL    HW259074   4.545   6.625   5.961
19023SOL     OW59075   4.116   6.398   6.897
19023SOL    HW159076   4.165   6.413   6.816
19023SOL    HW259077   4.064   6.319   6.873
19024SOL     OW59078   5.024   6.071   6.844
19024SOL    HW159079   4.996   6.134   6.914
19024SOL    HW259080   4.991   5.988   6.881
19025SOL     OW59081   4.123   6.676   6.037
19025SOL    HW159082   4.058   6.743   6.010
19025SOL    HW259083   4.069   6.596   6.039
19026SOL     OW59084   4.963   6.920   5.989
19026SOL    HW159085   5.002   7.008   6.004
19026SOL    HW259086   4.869   6.935   6.010
19027SOL     OW59087   5.275   6.344   6.076
19027SOL    HW159088   5.281   6.290   6.156
19027SOL    HW259089   5.323   6.290   6.011
19028SOL     OW59090   4.121   6.328   7.186
19028SOL    HW159091   4.147   6.368   7.101
19028SOL    HW259092   4.190   6.260   7.197
19029SOL     OW59093   5.344   6.390   7.259
19029SOL    HW159094   5.252   6.415   7.238
19029SOL    HW259095   5.389   6.422   7.178
19030SOL     OW59096   4.722   5.710   7.344
19030SOL    HW159097   4.786   5.768   7.302
19030SOL    HW259098   4.706   5.642   7.277
19031SOL     OW59099   4.263   5.684   7.351
19031SOL    HW159100   4.263   5.633   7.268
19031SOL    HW259101   4.179   5.734   7.345
19032SOL     OW59102   5.075   6.469   6.603
19032SOL    HW159103   5.017   6.451   6.528
19032SOL    HW259104   5.099   6.381   6.633
19033SOL     OW59105   4.967   6.146   5.927
19033SOL    HW159106   4.954   6.072   5.990
19033SOL    HW259107   4.880   6.150   5.884
19034SOL     OW59108   4.015   5.805   6.853
19034SOL    HW159109   3.965   5.836   6.930
19034SOL    HW259110   4.026   5.712   6.870
19035SOL     OW59111   5.487   6.537   7.443
19035SOL    HW159112   5.443   6.482   7.376
19035SOL    HW259113   5.422   6.531   7.515
19036SOL     OW59114   4.686   7.165   7.279
19036SOL    HW159115   4.675   7.187   7.186
19036SOL    HW259116   4.736   7.081   7.275
19037SOL     OW59117   5.575   7.092   7.204
19037SOL    HW159118   5.592   7.108   7.110
19037SOL    HW259119   5.660   7.116   7.246
19038SOL     OW59120   4.067   6.507   7.383
19038SOL    HW159121   4.150   6.512   7.433
19038SOL    HW259122   4.090   6.442   7.314
19039SOL     OW59123   3.743   6.891   5.765
19039SOL    HW159124   3.648   6.909   5.753
19039SOL    HW259125   3.744   6.805   5.811
19040SOL     OW59126   3.959   6.101   7.310
19040SOL    HW159127   4.032   6.092   7.247
19040SOL    HW259128   3.891   6.145   7.258
19041SOL     OW59129   5.077   6.508   7.229
19041SOL    HW159130   5.013   6.581   7.218
19041SOL    HW259131   5.075   6.465   7.142
19042SOL     OW59132   5.382   6.198   6.834
19042SOL    HW159133   5.300   6.166   6.874
19042SOL    HW259134   5.371   6.158   6.744
19043SOL     OW59135   3.969   7.135   7.296
19043SOL    HW159136   3.935   7.200   7.359
19043SOL    HW259137   3.980   7.055   7.351
19044SOL     OW59138   4.270   6.014   6.863
19044SOL    HW159139   4.276   5.939   6.801
19044SOL    HW259140   4.299   6.087   6.808
19045SOL     OW59141   3.905   6.688   7.072
19045SOL    HW159142   3.874   6.653   7.158
19045SOL    HW259143   3.823   6.712   7.026
19046SOL     OW59144   5.026   6.417   5.877
19046SOL    HW159145   5.015   6.379   5.965
19046SOL    HW259146   5.031   6.335   5.826
19047SOL     OW59147   5.489   7.325   6.728
19047SOL    HW159148   5.561   7.352   6.669
19047SOL    HW259149   5.468   7.236   6.695
19048SOL     OW59150   4.406   7.257   7.342
19048SOL    HW159151   4.372   7.323   7.280
19048SOL    HW259152   4.486   7.227   7.297
19049SOL     OW59153   5.110   7.171   6.061
19049SOL    HW159154   5.164   7.187   5.981
19049SOL    HW259155   5.056   7.252   6.068
19050SOL     OW59156   3.876   7.361   7.428
19050SOL    HW159157   3.823   7.300   7.483
19050SOL    HW259158   3.920   7.414   7.497
19051SOL     OW59159   5.018   6.493   6.283
19051SOL    HW159160   5.084   6.425   6.262
19051SOL    HW259161   5.036   6.559   6.214
19052SOL     OW59162   4.397   7.156   5.695
19052SOL    HW159163   4.409   7.122   5.606
19052SOL    HW259164   4.357   7.080   5.742
19053SOL     OW59165   5.350   7.296   6.977
19053SOL    HW159166   5.392   7.308   6.889
19053SOL    HW259167   5.336   7.389   7.004
19054SOL     OW59168   4.918   7.211   5.613
19054SOL    HW159169   4.908   7.123   5.652
19054SOL    HW259170   4.849   7.209   5.543
19055SOL     OW59171   4.639   6.481   5.910
19055SOL    HW159172   4.682   6.502   5.825
19055SOL    HW259173   4.635   6.385   5.910
19056SOL     OW59174   5.232   7.230   5.617
19056SOL    HW159175   5.137   7.213   5.612
19056SOL    HW259176   5.258   7.230   5.523
19057SOL     OW59177   4.065   6.895   7.061
19057SOL    HW159178   4.026   6.935   6.983
19057SOL    HW259179   4.019   6.808   7.063
19058SOL     OW59180   5.375   6.899   6.884
19058SOL    HW159181   5.392   6.867   6.975
19058SOL    HW259182   5.298   6.959   6.902
19059SOL     OW59183   4.736   6.708   6.280
19059SOL    HW159184   4.658   6.652   6.277
19059SOL    HW259185   4.807   6.649   6.252
19060SOL     OW59186   5.453   5.950   6.983
19060SOL    HW159187   5.468   6.040   6.951
19060SOL    HW259188   5.488   5.895   6.911
19061SOL     OW59189   3.991   6.928   5.919
19061SOL    HW159190   3.901   6.929   5.883
19061SOL    HW259191   3.996   7.013   5.967
19062SOL     OW59192   3.819   6.600   7.307
19062SOL    HW159193   3.750   6.574   7.371
19062SOL    HW259194   3.902   6.573   7.351
19063SOL     OW59195   5.189   6.451   6.976
19063SOL    HW159196   5.122   6.499   6.926
19063SOL    HW259197   5.271   6.469   6.926
19064SOL     OW59198   4.929   6.938   5.702
19064SOL    HW159199   4.833   6.927   5.701
19064SOL    HW259200   4.953   6.931   5.796
19065SOL     OW59201   5.239   7.339   6.540
19065SOL    HW159202   5.267   7.380   6.458
19065SOL    HW259203   5.316   7.345   6.597
19066SOL     OW59204   4.406   6.150   7.383
19066SOL    HW159205   4.476   6.213   7.405
19066SOL    HW259206   4.455   6.069   7.363
19067SOL     OW59207   5.184   6.873   7.227
19067SOL    HW159208   5.181   6.820   7.308
19067SOL    HW259209   5.236   6.818   7.168
19068SOL     OW59210   4.106   7.327   7.154
19068SOL    HW159211   4.029   7.385   7.144
19068SOL    HW259212   4.065   7.244   7.186
19069SOL     OW59213   5.406   6.472   6.816
19069SOL    HW159214   5.402   6.374   6.807
19069SOL    HW259215   5.359   6.503   6.737
19070SOL     OW59216   4.919   5.915   6.077
19070SOL    HW159217   4.993   5.860   6.043
19070SOL    HW259218   4.923   5.897   6.172
19071SOL     OW59219   5.497   5.959   7.242
19071SOL    HW159220   5.481   5.963   7.146
19071SOL    HW259221   5.417   5.911   7.270
19072SOL     OW59222   5.478   6.533   7.077
19072SOL    HW159223   5.432   6.617   7.084
19072SOL    HW259224   5.475   6.514   6.982
19073SOL     OW59225   4.620   6.948   5.632
19073SOL    HW159226   4.575   6.971   5.715
19073SOL    HW259227   4.621   7.032   5.582
19074SOL     OW59228   4.740   6.541   5.663
19074SOL    HW159229   4.705   6.599   5.594
19074SOL    HW259230   4.835   6.553   5.659
19075SOL     OW59231   5.572   7.151   6.438
19075SOL    HW159232   5.509   7.166   6.367
19075SOL    HW259233   5.522   7.099   6.502
19076SOL     OW59234   3.987   6.899   7.440
19076SOL    HW159235   3.916   6.839   7.415
19076SOL    HW259236   3.970   6.913   7.536
19077SOL     OW59237   4.412   7.005   7.205
19077SOL    HW159238   4.356   6.928   7.188
19077SOL    HW259239   4.362   7.054   7.271
19078SOL     OW59240   5.557   5.771   6.805
19078SOL    HW159241   5.525   5.686   6.837
19078SOL    HW259242   5.538   5.769   6.710
19079SOL     OW59243   5.421   7.067   6.660
19079SOL    HW159244   5.329   7.053   6.625
19079SOL    HW259245   5.407   7.044   6.754
19080SOL     OW59246   4.020   6.132   6.870
19080SOL    HW159247   4.106   6.093   6.895
19080SOL    HW259248   4.017   6.111   6.775
19081SOL     OW59249   4.514   6.952   5.883
19081SOL    HW159250   4.487   6.860   5.903
19081SOL    HW259251   4.587   6.965   5.947
19082SOL     OW59252   4.290   7.174   6.854
19082SOL    HW159253   4.326   7.241   6.913
19082SOL    HW259254   4.360   7.107   6.853
19083SOL     OW59255   5.053   5.603   5.757
19083SOL    HW159256   5.117   5.570   5.693
19083SOL    HW259257   4.972   5.559   5.731
19084SOL     OW59258   3.790   6.663   5.900
19084SOL    HW159259   3.873   6.635   5.857
19084SOL    HW259260   3.758   6.573   5.924
19085SOL     OW59261   3.959   6.235   7.574
19085SOL    HW159262   3.868   6.217   7.600
19085SOL    HW259263   3.963   6.208   7.481
19086SOL     OW59264   3.959   5.858   8.438
19086SOL    HW159265   3.972   5.847   8.534
19086SOL    HW259266   3.868   5.824   8.428
19087SOL     OW59267   3.737   6.002   8.105
19087SOL    HW159268   3.648   6.016   8.142
19087SOL    HW259269   3.723   5.925   8.048
19088SOL     OW59270   4.291   6.869   8.646
19088SOL    HW159271   4.204   6.872   8.602
19088SOL    HW259272   4.299   6.961   8.674
19089SOL     OW59273   5.259   7.111   8.161
19089SOL    HW159274   5.225   7.080   8.247
19089SOL    HW259275   5.179   7.115   8.105
19090SOL     OW59276   4.855   6.264   8.167
19090SOL    HW159277   4.882   6.351   8.133
19090SOL    HW259278   4.815   6.289   8.252
19091SOL     OW59279   5.491   6.192   7.673
19091SOL    HW159280   5.478   6.199   7.576
19091SOL    HW259281   5.428   6.121   7.694
19092SOL     OW59282   4.482   6.753   8.492
19092SOL    HW159283   4.407   6.790   8.542
19092SOL    HW259284   4.504   6.828   8.433
19093SOL     OW59285   4.607   6.346   9.250
19093SOL    HW159286   4.572   6.412   9.311
19093SOL    HW259287   4.627   6.399   9.170
19094SOL     OW59288   4.413   6.597   8.090
19094SOL    HW159289   4.474   6.579   8.164
19094SOL    HW259290   4.342   6.648   8.134
19095SOL     OW59291   4.423   6.741   9.252
19095SOL    HW159292   4.465   6.826   9.276
19095SOL    HW259293   4.336   6.769   9.218
19096SOL     OW59294   5.191   7.085   8.827
19096SOL    HW159295   5.246   7.165   8.837
19096SOL    HW259296   5.128   7.093   8.900
19097SOL     OW59297   4.164   6.000   8.921
19097SOL    HW159298   4.246   5.951   8.936
19097SOL    HW259299   4.094   5.933   8.932
19098SOL     OW59300   5.358   6.052   8.200
19098SOL    HW159301   5.291   6.060   8.130
19098SOL    HW259302   5.359   6.142   8.235
19099SOL     OW59303   3.950   7.295   7.932
19099SOL    HW159304   3.978   7.376   7.978
19099SOL    HW259305   4.001   7.300   7.850
19100SOL     OW59306   4.843   6.928   9.121
19100SOL    HW159307   4.888   6.926   9.206
19100SOL    HW259308   4.794   6.844   9.124
19101SOL     OW59309   3.968   7.017   7.965
19101SOL    HW159310   3.971   7.114   7.977
19101SOL    HW259311   3.903   6.990   8.032
19102SOL     OW59312   3.996   6.665   8.343
19102SOL    HW159313   3.994   6.597   8.412
19102SOL    HW259314   3.943   6.736   8.387
19103SOL     OW59315   4.342   7.379   8.885
19103SOL    HW159316   4.256   7.350   8.920
19103SOL    HW259317   4.337   7.476   8.894
19104SOL     OW59318   4.286   6.575   7.580
19104SOL    HW159319   4.331   6.623   7.507
19104SOL    HW259320   4.334   6.612   7.656
19105SOL     OW59321   5.332   5.690   8.936
19105SOL    HW159322   5.320   5.771   8.883
19105SOL    HW259323   5.330   5.727   9.026
19106SOL     OW59324   3.833   6.245   8.012
19106SOL    HW159325   3.807   6.154   8.038
19106SOL    HW259326   3.830   6.291   8.099
19107SOL     OW59327   5.573   7.334   7.795
19107SOL    HW159328   5.644   7.314   7.859
19107SOL    HW259329   5.593   7.427   7.775
19108SOL     OW59330   3.749   7.170   7.577
19108SOL    HW159331   3.741   7.077   7.605
19108SOL    HW259332   3.730   7.219   7.659
19109SOL     OW59333   5.423   6.503   8.065
19109SOL    HW159334   5.479   6.458   8.000
19109SOL    HW259335   5.382   6.572   8.010
19110SOL     OW59336   5.351   6.712   7.884
19110SOL    HW159337   5.440   6.714   7.845
19110SOL    HW259338   5.360   6.776   7.956
19111SOL     OW59339   3.825   6.353   9.029
19111SOL    HW159340   3.915   6.342   9.062
19111SOL    HW259341   3.803   6.441   9.064
19112SOL     OW59342   4.355   6.958   8.201
19112SOL    HW159343   4.304   6.875   8.214
19112SOL    HW259344   4.327   6.982   8.112
19113SOL     OW59345   5.016   6.818   8.868
19113SOL    HW159346   5.040   6.744   8.810
19113SOL    HW259347   5.070   6.801   8.947
19114SOL     OW59348   4.553   5.589   7.941
19114SOL    HW159349   4.589   5.680   7.934
19114SOL    HW259350   4.457   5.606   7.941
19115SOL     OW59351   3.899   6.562   8.714
19115SOL    HW159352   3.989   6.530   8.699
19115SOL    HW259353   3.844   6.501   8.664
19116SOL     OW59354   5.286   6.539   7.634
19116SOL    HW159355   5.208   6.488   7.660
19116SOL    HW259356   5.309   6.583   7.718
19117SOL     OW59357   4.896   7.431   9.028
19117SOL    HW159358   4.939   7.413   8.944
19117SOL    HW259359   4.886   7.339   9.058
19118SOL     OW59360   4.094   5.826   9.217
19118SOL    HW159361   4.124   5.912   9.249
19118SOL    HW259362   4.003   5.827   9.254
19119SOL     OW59363   5.194   7.010   8.412
19119SOL    HW159364   5.132   7.025   8.486
19119SOL    HW259365   5.168   6.921   8.382
19120SOL     OW59366   5.386   7.317   8.045
19120SOL    HW159367   5.371   7.290   7.953
19120SOL    HW259368   5.345   7.242   8.093
19121SOL     OW59369   4.315   6.320   7.716
19121SOL    HW159370   4.320   6.395   7.655
19121SOL    HW259371   4.230   6.334   7.761
19122SOL     OW59372   5.003   5.953   8.380
19122SOL    HW159373   4.912   5.919   8.384
19122SOL    HW259374   5.050   5.893   8.443
19123SOL     OW59375   5.299   7.242   7.765
19123SOL    HW159376   5.393   7.264   7.760
19123SOL    HW259377   5.279   7.222   7.671
19124SOL     OW59378   4.532   6.208   8.904
19124SOL    HW159379   4.508   6.175   8.994
19124SOL    HW259380   4.483   6.145   8.847
19125SOL     OW59381   5.125   6.060   9.123
19125SOL    HW159382   5.133   6.118   9.201
19125SOL    HW259383   5.185   5.986   9.145
19126SOL     OW59384   4.679   6.474   9.027
19126SOL    HW159385   4.722   6.394   8.987
19126SOL    HW259386   4.639   6.515   8.947
19127SOL     OW59387   4.674   5.950   8.678
19127SOL    HW159388   4.593   6.002   8.689
19127SOL    HW259389   4.681   5.940   8.582
19128SOL     OW59390   4.774   6.251   7.868
19128SOL    HW159391   4.785   6.263   7.964
19128SOL    HW259392   4.687   6.208   7.862
19129SOL     OW59393   3.824   6.388   8.241
19129SOL    HW159394   3.896   6.395   8.305
19129SOL    HW259395   3.774   6.470   8.257
19130SOL     OW59396   3.824   7.430   9.014
19130SOL    HW159397   3.842   7.410   9.109
19130SOL    HW259398   3.735   7.397   9.003
19131SOL     OW59399   4.625   5.971   7.648
19131SOL    HW159400   4.655   6.036   7.581
19131SOL    HW259401   4.631   5.890   7.596
19132SOL     OW59402   5.444   6.178   9.283
19132SOL    HW159403   5.408   6.253   9.232
19132SOL    HW259404   5.462   6.115   9.211
19133SOL     OW59405   5.082   6.733   8.012
19133SOL    HW159406   5.160   6.717   7.957
19133SOL    HW259407   5.032   6.794   7.955
19134SOL     OW59408   4.268   5.775   8.345
19134SOL    HW159409   4.273   5.805   8.438
19134SOL    HW259410   4.263   5.857   8.294
19135SOL     OW59411   4.722   7.031   7.933
19135SOL    HW159412   4.683   7.096   7.872
19135SOL    HW259413   4.720   7.079   8.017
19136SOL     OW59414   4.074   7.408   8.291
19136SOL    HW159415   4.135   7.333   8.306
19136SOL    HW259416   4.131   7.483   8.315
19137SOL     OW59417   5.531   6.634   8.345
19137SOL    HW159418   5.487   6.634   8.258
19137SOL    HW259419   5.457   6.633   8.407
19138SOL     OW59420   4.945   7.151   8.955
19138SOL    HW159421   4.923   7.080   9.018
19138SOL    HW259422   4.906   7.114   8.874
19139SOL     OW59423   4.019   6.538   7.691
19139SOL    HW159424   4.108   6.560   7.659
19139SOL    HW259425   3.994   6.467   7.631
19140SOL     OW59426   5.210   6.337   8.162
19140SOL    HW159427   5.200   6.314   8.255
19140SOL    HW259428   5.290   6.392   8.160
19141SOL     OW59429   4.187   6.859   9.171
19141SOL    HW159430   4.145   6.861   9.082
19141SOL    HW259431   4.107   6.867   9.226
19142SOL     OW59432   4.822   7.361   7.687
19142SOL    HW159433   4.755   7.305   7.732
19142SOL    HW259434   4.837   7.311   7.604
19143SOL     OW59435   3.901   5.877   8.951
19143SOL    HW159436   3.826   5.937   8.957
19143SOL    HW259437   3.887   5.821   9.028
19144SOL     OW59438   5.348   6.948   7.548
19144SOL    HW159439   5.299   7.025   7.516
19144SOL    HW259440   5.292   6.874   7.516
19145SOL     OW59441   4.185   7.315   7.759
19145SOL    HW159442   4.236   7.365   7.826
19145SOL    HW259443   4.254   7.274   7.705
19146SOL     OW59444   5.123   5.732   7.912
19146SOL    HW159445   5.104   5.686   7.829
19146SOL    HW259446   5.219   5.722   7.920
19147SOL     OW59447   3.973   7.381   8.671
19147SOL    HW159448   4.025   7.309   8.708
19147SOL    HW259449   3.956   7.349   8.581
19148SOL     OW59450   4.678   7.290   8.323
19148SOL    HW159451   4.757   7.235   8.333
19148SOL    HW259452   4.626   7.239   8.258
19149SOL     OW59453   4.106   6.264   7.918
19149SOL    HW159454   4.129   6.170   7.932
19149SOL    HW259455   4.011   6.263   7.937
19150SOL     OW59456   5.267   5.827   9.172
19150SOL    HW159457   5.271   5.832   9.271
19150SOL    HW259458   5.200   5.758   9.162
19151SOL     OW59459   4.357   5.713   7.584
19151SOL    HW159460   4.445   5.676   7.570
19151SOL    HW259461   4.315   5.693   7.497
19152SOL     OW59462   4.492   5.842   9.185
19152SOL    HW159463   4.571   5.786   9.201
19152SOL    HW259464   4.443   5.835   9.268
19153SOL     OW59465   4.611   7.129   8.637
19153SOL    HW159466   4.594   7.104   8.544
19153SOL    HW259467   4.665   7.055   8.668
19154SOL     OW59468   5.054   6.184   8.891
19154SOL    HW159469   5.094   6.149   8.973
19154SOL    HW259470   5.110   6.261   8.869
19155SOL     OW59471   4.546   7.008   8.384
19155SOL    HW159472   4.627   6.985   8.336
19155SOL    HW259473   4.478   7.003   8.314
19156SOL     OW59474   4.647   6.121   8.353
19156SOL    HW159475   4.624   6.113   8.257
19156SOL    HW259476   4.677   6.032   8.370
19157SOL     OW59477   4.280   5.643   7.940
19157SOL    HW159478   4.195   5.645   7.988
19157SOL    HW259479   4.273   5.726   7.887
19158SOL     OW59480   5.177   6.758   7.478
19158SOL    HW159481   5.201   6.673   7.518
19158SOL    HW259482   5.083   6.766   7.499
19159SOL     OW59483   4.041   5.686   7.690
19159SOL    HW159484   4.098   5.740   7.634
19159SOL    HW259485   4.095   5.607   7.704
19160SOL     OW59486   4.661   5.841   7.929
19160SOL    HW159487   4.639   5.883   7.843
19160SOL    HW259488   4.757   5.857   7.933
19161SOL     OW59489   4.807   6.268   8.924
19161SOL    HW159490   4.750   6.189   8.929
19161SOL    HW259491   4.897   6.232   8.922
19162SOL     OW59492   4.955   7.161   8.239
19162SOL    HW159493   4.948   7.217   8.160
19162SOL    HW259494   5.028   7.201   8.288
19163SOL     OW59495   4.201   6.731   8.182
19163SOL    HW159496   4.127   6.708   8.242
19163SOL    HW259497   4.156   6.719   8.095
19164SOL     OW59498   4.986   7.398   8.045
19164SOL    HW159499   5.041   7.464   7.997
19164SOL    HW259500   4.935   7.454   8.105
19165SOL     OW59501   4.765   6.138   7.481
19165SOL    HW159502   4.779   6.112   7.388
19165SOL    HW259503   4.854   6.135   7.517
19166SOL     OW59504   3.782   6.148   8.857
19166SOL    HW159505   3.877   6.139   8.838
19166SOL    HW259506   3.781   6.230   8.911
19167SOL     OW59507   4.291   5.817   8.623
19167SOL    HW159508   4.331   5.744   8.672
19167SOL    HW259509   4.197   5.808   8.648
19168SOL     OW59510   4.594   6.047   8.108
19168SOL    HW159511   4.548   6.094   8.037
19168SOL    HW259512   4.613   5.962   8.065
19169SOL     OW59513   4.696   5.648   8.225
19169SOL    HW159514   4.682   5.660   8.130
19169SOL    HW259515   4.769   5.585   8.224
19170SOL     OW59516   5.143   6.758   8.333
19170SOL    HW159517   5.096   6.675   8.350
19170SOL    HW259518   5.133   6.768   8.237
19171SOL     OW59519   5.170   6.181   8.458
19171SOL    HW159520   5.125   6.096   8.444
19171SOL    HW259521   5.244   6.160   8.517
19172SOL     OW59522   5.563   6.398   7.850
19172SOL    HW159523   5.622   6.338   7.901
19172SOL    HW259524   5.539   6.341   7.774
19173SOL     OW59525   4.218   6.995   7.573
19173SOL    HW159526   4.133   6.990   7.619
19173SOL    HW259527   4.206   6.933   7.500
19174SOL     OW59528   5.400   6.866   8.111
19174SOL    HW159529   5.497   6.875   8.104
19174SOL    HW259530   5.368   6.957   8.125
19175SOL     OW59531   5.159   6.201   7.567
19175SOL    HW159532   5.093   6.151   7.618
19175SOL    HW259533   5.166   6.149   7.485
19176SOL     OW59534   4.258   5.857   7.781
19176SOL    HW159535   4.302   5.810   7.706
19176SOL    HW259536   4.218   5.932   7.734
19177SOL     OW59537   5.460   6.816   9.022
19177SOL    HW159538   5.551   6.783   9.029
19177SOL    HW259539   5.474   6.910   9.039
19178SOL     OW59540   4.794   6.957   8.791
19178SOL    HW159541   4.715   6.918   8.831
19178SOL    HW259542   4.866   6.901   8.827
19179SOL     OW59543   5.327   7.194   9.081
19179SOL    HW159544   5.335   7.238   8.994
19179SOL    HW259545   5.410   7.142   9.085
19180SOL     OW59546   4.850   6.828   8.545
19180SOL    HW159547   4.777   6.841   8.606
19180SOL    HW259548   4.814   6.861   8.461
19181SOL     OW59549   5.323   6.684   8.527
19181SOL    HW159550   5.335   6.750   8.597
19181SOL    HW259551   5.260   6.729   8.468
19182SOL     OW59552   4.665   5.680   8.852
19182SOL    HW159553   4.642   5.756   8.797
19182SOL    HW259554   4.745   5.713   8.897
19183SOL     OW59555   4.714   6.698   9.188
19183SOL    HW159556   4.623   6.726   9.206
19183SOL    HW259557   4.703   6.624   9.126
19184SOL     OW59558   4.445   6.655   7.795
19184SOL    HW159559   4.424   6.624   7.885
19184SOL    HW259560   4.517   6.594   7.768
19185SOL     OW59561   4.149   6.400   8.707
19185SOL    HW159562   4.218   6.400   8.776
19185SOL    HW259563   4.101   6.318   8.725
19186SOL     OW59564   5.006   5.973   8.730
19186SOL    HW159565   5.022   6.052   8.785
19186SOL    HW259566   4.927   5.998   8.680
19187SOL     OW59567   3.806   7.156   8.797
19187SOL    HW159568   3.806   7.235   8.741
19187SOL    HW259569   3.901   7.134   8.800
19188SOL     OW59570   4.079   6.691   7.948
19188SOL    HW159571   4.103   6.752   7.878
19188SOL    HW259572   4.064   6.608   7.899
19189SOL     OW59573   4.256   6.137   8.292
19189SOL    HW159574   4.276   6.198   8.217
19189SOL    HW259575   4.326   6.159   8.354
19190SOL     OW59576   4.952   6.911   7.840
19190SOL    HW159577   4.997   6.989   7.877
19190SOL    HW259578   4.860   6.929   7.867
19191SOL     OW59579   5.025   7.053   8.616
19191SOL    HW159580   5.079   7.039   8.696
19191SOL    HW259581   4.955   6.986   8.625
19192SOL     OW59582   5.312   6.189   7.930
19192SOL    HW159583   5.251   6.241   7.985
19192SOL    HW259584   5.326   6.247   7.854
19193SOL     OW59585   4.076   7.102   8.811
19193SOL    HW159586   4.057   7.080   8.716
19193SOL    HW259587   4.172   7.114   8.803
19194SOL     OW59588   4.171   6.322   9.079
19194SOL    HW159589   4.225   6.354   9.004
19194SOL    HW259590   4.160   6.228   9.059
19195SOL     OW59591   5.345   6.361   9.125
19195SOL    HW159592   5.255   6.400   9.122
19195SOL    HW259593   5.387   6.406   9.049
19196SOL     OW59594   4.723   5.698   9.207
19196SOL    HW159595   4.780   5.775   9.194
19196SOL    HW259596   4.779   5.628   9.169
19197SOL     OW59597   4.231   5.591   9.208
19197SOL    HW159598   4.183   5.543   9.138
19197SOL    HW259599   4.180   5.674   9.211
19198SOL     OW59600   4.328   6.478   8.498
19198SOL    HW159601   4.340   6.573   8.501
19198SOL    HW259602   4.261   6.461   8.567
19199SOL     OW59603   5.073   6.453   8.465
19199SOL    HW159604   4.989   6.419   8.432
19199SOL    HW259605   5.123   6.371   8.479
19200SOL     OW59606   4.951   6.092   7.721
19200SOL    HW159607   4.952   6.021   7.788
19200SOL    HW259608   4.884   6.151   7.760
19201SOL     OW59609   4.022   5.796   8.697
19201SOL    HW159610   3.974   5.825   8.776
19201SOL    HW259611   3.998   5.701   8.695
19202SOL     OW59612   3.739   6.898   8.731
19202SOL    HW159613   3.785   6.841   8.796
19202SOL    HW259614   3.769   6.987   8.755
19203SOL     OW59615   4.443   6.236   8.507
19203SOL    HW159616   4.514   6.219   8.443
19203SOL    HW259617   4.411   6.326   8.487
19204SOL     OW59618   5.478   6.536   9.296
19204SOL    HW159619   5.423   6.488   9.232
19204SOL    HW259620   5.418   6.540   9.373
19205SOL     OW59621   4.033   5.640   8.060
19205SOL    HW159622   4.002   5.730   8.079
19205SOL    HW259623   4.027   5.599   8.148
19206SOL     OW59624   5.317   5.952   7.801
19206SOL    HW159625   5.348   5.886   7.864
19206SOL    HW259626   5.316   6.034   7.855
19207SOL     OW59627   4.776   6.344   8.422
19207SOL    HW159628   4.759   6.353   8.519
19207SOL    HW259629   4.739   6.255   8.405
19208SOL     OW59630   4.702   7.157   9.149
19208SOL    HW159631   4.683   7.200   9.063
19208SOL    HW259632   4.721   7.065   9.121
19209SOL     OW59633   5.570   7.077   9.059
19209SOL    HW159634   5.594   7.097   8.967
19209SOL    HW259635   5.648   7.108   9.108
19210SOL     OW59636   4.071   6.485   9.255
19210SOL    HW159637   4.156   6.502   9.297
19210SOL    HW259638   4.096   6.414   9.191
19211SOL     OW59639   5.234   5.824   7.568
19211SOL    HW159640   5.159   5.774   7.604
19211SOL    HW259641   5.266   5.873   7.645
19212SOL     OW59642   5.025   6.421   7.475
19212SOL    HW159643   5.077   6.339   7.490
19212SOL    HW259644   5.049   6.445   7.383
19213SOL     OW59645   4.789   6.946   8.292
19213SOL    HW159646   4.803   6.868   8.236
19213SOL    HW259647   4.859   7.008   8.264
19214SOL     OW59648   4.011   6.391   8.448
19214SOL    HW159649   4.104   6.406   8.428
19214SOL    HW259650   4.011   6.295   8.464
19215SOL     OW59651   4.049   6.121   8.451
19215SOL    HW159652   4.022   6.030   8.428
19215SOL    HW259653   4.118   6.137   8.382
19216SOL     OW59654   4.879   5.954   9.147
19216SOL    HW159655   4.831   6.011   9.209
19216SOL    HW259656   4.968   5.995   9.146
19217SOL     OW59657   4.902   5.784   8.934
19217SOL    HW159658   4.891   5.850   9.005
19217SOL    HW259659   4.939   5.840   8.863
19218SOL     OW59660   3.715   6.901   7.657
19218SOL    HW159661   3.623   6.904   7.622
19218SOL    HW259662   3.727   6.806   7.679
19219SOL     OW59663   3.828   7.371   8.389
19219SOL    HW159664   3.796   7.300   8.330
19219SOL    HW259665   3.918   7.387   8.353
19220SOL     OW59666   4.261   7.217   8.347
19220SOL    HW159667   4.287   7.206   8.439
19220SOL    HW259668   4.208   7.136   8.334
19221SOL     OW59669   4.712   6.357   8.679
19221SOL    HW159670   4.763   6.330   8.757
19221SOL    HW259671   4.621   6.340   8.708
19222SOL     OW59672   3.759   6.116   8.567
19222SOL    HW159673   3.844   6.110   8.521
19222SOL    HW259674   3.787   6.139   8.657
19223SOL     OW59675   3.966   6.121   9.144
19223SOL    HW159676   3.980   6.036   9.103
19223SOL    HW259677   3.870   6.129   9.145
19224SOL     OW59678   5.115   6.493   9.100
19224SOL    HW159679   5.131   6.590   9.099
19224SOL    HW259680   5.105   6.474   9.005
19225SOL     OW59681   4.523   6.153   7.836
19225SOL    HW159682   4.544   6.090   7.765
19225SOL    HW259683   4.452   6.207   7.795
19226SOL     OW59684   5.369   6.211   8.664
19226SOL    HW159685   5.340   6.139   8.721
19226SOL    HW259686   5.450   6.175   8.622
19227SOL     OW59687   3.970   7.121   9.172
19227SOL    HW159688   3.960   7.191   9.238
19227SOL    HW259689   3.975   7.041   9.227
19228SOL     OW59690   4.423   6.060   8.713
19228SOL    HW159691   4.363   5.989   8.683
19228SOL    HW259692   4.413   6.128   8.643
19229SOL     OW59693   4.647   7.276   8.911
19229SOL    HW159694   4.636   7.235   8.824
19229SOL    HW259695   4.651   7.371   8.891
19230SOL     OW59696   4.170   6.078   7.660
19230SOL    HW159697   4.241   6.143   7.650
19230SOL    HW259698   4.093   6.130   7.634
19231SOL     OW59699   3.830   6.723   8.911
19231SOL    HW159700   3.841   6.666   8.990
19231SOL    HW259701   3.852   6.659   8.839
19232SOL     OW59702   5.044   6.624   8.680
19232SOL    HW159703   5.061   6.569   8.601
19232SOL    HW259704   4.979   6.688   8.644
19233SOL     OW59705   5.036   6.446   7.744
19233SOL    HW159706   4.949   6.416   7.772
19233SOL    HW259707   5.031   6.432   7.647
19234SOL     OW59708   5.482   7.332   8.577
19234SOL    HW159709   5.558   7.353   8.519
19234SOL    HW259710   5.471   7.236   8.560
19235SOL     OW59711   4.970   7.316   8.575
19235SOL    HW159712   5.057   7.338   8.540
19235SOL    HW259713   4.975   7.218   8.583
19236SOL     OW59714   3.818   6.805   8.483
19236SOL    HW159715   3.800   6.850   8.567
19236SOL    HW259716   3.729   6.783   8.452
19237SOL     OW59717   4.411   7.233   9.192
19237SOL    HW159718   4.353   7.309   9.178
19237SOL    HW259719   4.476   7.242   9.121
19238SOL     OW59720   5.407   5.715   7.971
19238SOL    HW159721   5.469   5.708   7.897
19238SOL    HW259722   5.407   5.624   8.006
19239SOL     OW59723   5.086   7.158   7.931
19239SOL    HW159724   5.147   7.176   7.857
19239SOL    HW259725   5.045   7.244   7.945
19240SOL     OW59726   3.881   7.377   9.274
19240SOL    HW159727   3.837   7.308   9.328
19240SOL    HW259728   3.925   7.429   9.343
19241SOL     OW59729   4.978   6.503   8.123
19241SOL    HW159730   5.059   6.450   8.132
19241SOL    HW259731   5.011   6.582   8.075
19242SOL     OW59732   4.526   6.857   8.873
19242SOL    HW159733   4.497   6.911   8.950
19242SOL    HW259734   4.449   6.866   8.815
19243SOL     OW59735   4.390   7.196   7.604
19243SOL    HW159736   4.396   7.221   7.509
19243SOL    HW259737   4.333   7.116   7.598
19244SOL     OW59738   5.342   7.307   8.835
19244SOL    HW159739   5.388   7.320   8.751
19244SOL    HW259740   5.329   7.398   8.867
19245SOL     OW59741   5.566   5.753   8.423
19245SOL    HW159742   5.584   5.666   8.383
19245SOL    HW259743   5.480   5.780   8.381
19246SOL     OW59744   3.975   5.883   8.159
19246SOL    HW159745   3.897   5.939   8.145
19246SOL    HW259746   3.984   5.886   8.256
19247SOL     OW59747   4.908   7.214   7.475
19247SOL    HW159748   4.912   7.117   7.488
19247SOL    HW259749   4.857   7.223   7.394
19248SOL     OW59750   4.550   6.594   8.818
19248SOL    HW159751   4.569   6.598   8.724
19248SOL    HW259752   4.544   6.689   8.842
19249SOL     OW59753   4.640   6.492   7.722
19249SOL    HW159754   4.707   6.525   7.659
19249SOL    HW259755   4.673   6.404   7.746
19250SOL     OW59756   5.227   7.196   7.492
19250SOL    HW159757   5.132   7.200   7.479
19250SOL    HW259758   5.261   7.214   7.402
19251SOL     OW59759   4.065   6.861   8.938
19251SOL    HW159760   4.060   6.941   8.882
19251SOL    HW259761   3.981   6.815   8.919
19252SOL     OW59762   5.327   6.898   8.712
19252SOL    HW159763   5.373   6.871   8.792
19252SOL    HW259764   5.266   6.966   8.748
19253SOL     OW59765   4.771   6.700   8.167
19253SOL    HW159766   4.691   6.656   8.201
19253SOL    HW259767   4.828   6.624   8.144
19254SOL     OW59768   4.760   5.823   8.427
19254SOL    HW159769   4.726   5.782   8.345
19254SOL    HW259770   4.804   5.749   8.470
19255SOL     OW59771   4.331   7.069   7.937
19255SOL    HW159772   4.390   7.022   7.875
19255SOL    HW259773   4.259   7.097   7.880
19256SOL     OW59774   5.428   5.958   8.832
19256SOL    HW159775   5.490   6.032   8.830
19256SOL    HW259776   5.476   5.891   8.778
19257SOL     OW59777   3.967   6.967   7.705
19257SOL    HW159778   3.870   6.950   7.702
19257SOL    HW259779   3.977   6.987   7.801
19258SOL     OW59780   3.856   6.602   9.152
19258SOL    HW159781   3.785   6.594   9.220
19258SOL    HW259782   3.934   6.564   9.199
19259SOL     OW59783   4.397   5.767   8.942
19259SOL    HW159784   4.486   5.732   8.926
19259SOL    HW259785   4.408   5.808   9.030
19260SOL     OW59786   5.173   6.436   8.829
19260SOL    HW159787   5.131   6.501   8.771
19260SOL    HW259788   5.266   6.461   8.822
19261SOL     OW59789   4.926   6.954   7.568
19261SOL    HW159790   4.838   6.915   7.565
19261SOL    HW259791   4.951   6.939   7.661
19262SOL     OW59792   4.345   6.402   8.885
19262SOL    HW159793   4.400   6.482   8.886
19262SOL    HW259794   4.415   6.333   8.888
19263SOL     OW59795   5.234   7.385   8.417
19263SOL    HW159796   5.267   7.414   8.330
19263SOL    HW259797   5.315   7.353   8.458
19264SOL     OW59798   4.457   6.128   9.141
19264SOL    HW159799   4.483   6.194   9.207
19264SOL    HW259800   4.464   6.044   9.187
19265SOL     OW59801   5.187   6.757   9.075
19265SOL    HW159802   5.179   6.775   9.171
19265SOL    HW259803   5.281   6.778   9.058
19266SOL     OW59804   4.095   7.318   9.011
19266SOL    HW159805   4.009   7.360   8.993
19266SOL    HW259806   4.067   7.227   9.033
19267SOL     OW59807   5.423   6.475   8.684
19267SOL    HW159808   5.391   6.386   8.658
19267SOL    HW259809   5.378   6.535   8.622
19268SOL     OW59810   4.933   5.916   7.935
19268SOL    HW159811   4.998   5.846   7.914
19268SOL    HW259812   4.981   5.968   8.002
19269SOL     OW59813   4.305   6.332   8.112
19269SOL    HW159814   4.343   6.419   8.095
19269SOL    HW259815   4.242   6.320   8.039
19270SOL     OW59816   5.489   5.967   9.091
19270SOL    HW159817   5.456   5.971   8.999
19270SOL    HW259818   5.418   5.915   9.133
19271SOL     OW59819   5.465   6.509   8.943
19271SOL    HW159820   5.474   6.605   8.948
19271SOL    HW259821   5.466   6.494   8.846
19272SOL     OW59822   4.567   6.968   7.471
19272SOL    HW159823   4.526   7.011   7.546
19272SOL    HW259824   4.607   7.040   7.420
19273SOL     OW59825   4.426   7.438   8.457
19273SOL    HW159826   4.377   7.493   8.394
19273SOL    HW259827   4.459   7.366   8.401
19274SOL     OW59828   4.592   6.526   8.291
19274SOL    HW159829   4.643   6.455   8.333
19274SOL    HW259830   4.571   6.585   8.365
19275SOL     OW59831   4.797   6.573   7.512
19275SOL    HW159832   4.805   6.639   7.441
19275SOL    HW259833   4.874   6.516   7.496
19276SOL     OW59834   5.583   7.145   8.298
19276SOL    HW159835   5.493   7.141   8.265
19276SOL    HW259836   5.584   7.074   8.363
19277SOL     OW59837   3.963   6.894   9.317
19277SOL    HW159838   3.896   6.831   9.288
19277SOL    HW259839   3.952   6.894   9.413
19278SOL     OW59840   3.812   6.825   8.099
19278SOL    HW159841   3.832   6.789   8.186
19278SOL    HW259842   3.886   6.791   8.046
19279SOL     OW59843   4.402   6.992   9.069
19279SOL    HW159844   4.326   6.936   9.092
19279SOL    HW259845   4.389   7.068   9.129
19280SOL     OW59846   5.543   5.758   8.683
19280SOL    HW159847   5.532   5.663   8.672
19280SOL    HW259848   5.560   5.783   8.590
19281SOL     OW59849   4.164   6.005   7.985
19281SOL    HW159850   4.206   5.957   7.912
19281SOL    HW259851   4.108   5.939   8.028
19282SOL     OW59852   5.437   7.074   8.532
19282SOL    HW159853   5.353   7.048   8.490
19282SOL    HW259854   5.435   7.014   8.609
19283SOL     OW59855   4.033   6.134   8.725
19283SOL    HW159856   4.095   6.087   8.784
19283SOL    HW259857   4.061   6.106   8.636
19284SOL     OW59858   4.533   7.178   8.118
19284SOL    HW159859   4.517   7.179   8.022
19284SOL    HW259860   4.451   7.137   8.150
19285SOL     OW59861   5.121   5.810   8.561
19285SOL    HW159862   5.192   5.756   8.597
19285SOL    HW259863   5.088   5.862   8.638
19286SOL     OW59864   4.503   6.931   7.778
19286SOL    HW159865   4.479   6.837   7.764
19286SOL    HW259866   4.586   6.923   7.826
19287SOL     OW59867   4.333   7.149   8.735
19287SOL    HW159868   4.341   7.236   8.779
19287SOL    HW259869   4.420   7.141   8.695
19288SOL     OW59870   5.044   5.640   7.638
19288SOL    HW159871   5.065   5.597   7.555
19288SOL    HW259872   4.959   5.595   7.660
19289SOL     OW59873   5.050   6.060   8.137
19289SOL    HW159874   4.981   6.129   8.129
19289SOL    HW259875   5.031   6.023   8.225
19290SOL     OW59876   5.330   5.812   8.319
19290SOL    HW159877   5.237   5.795   8.336
19290SOL    HW259878   5.329   5.895   8.267
19291SOL     OW59879   3.764   6.645   7.742
19291SOL    HW159880   3.859   6.624   7.733
19291SOL    HW259881   3.729   6.557   7.768
19292SOL     OW59882   4.608   7.224   7.777
19292SOL    HW159883   4.528   7.206   7.724
19292SOL    HW259884   4.587   7.310   7.820
19293SOL     OW59885   3.961   6.228   9.441
19293SOL    HW159886   3.874   6.194   9.467
19293SOL    HW259887   3.971   6.196   9.350
19294SOL     OW59888   3.967   5.855  10.282
19294SOL    HW159889   3.979   5.843  10.378
19294SOL    HW259890   3.878   5.817  10.270
19295SOL     OW59891   3.728   5.985   9.925
19295SOL    HW159892   3.645   6.001   9.974
19295SOL    HW259893   3.706   5.904   9.877
19296SOL     OW59894   4.293   6.891  10.464
19296SOL    HW159895   4.198   6.875  10.456
19296SOL    HW259896   4.296   6.978  10.507
19297SOL     OW59897   5.281   7.105  10.033
19297SOL    HW159898   5.245   7.076  10.119
19297SOL    HW259899   5.206   7.093   9.973
19298SOL     OW59900   4.835   6.278  10.004
19298SOL    HW159901   4.882   6.362   9.986
19298SOL    HW259902   4.795   6.297  10.090
19299SOL     OW59903   5.493   6.194   9.547
19299SOL    HW159904   5.473   6.190   9.452
19299SOL    HW259905   5.439   6.122   9.583
19300SOL     OW59906   4.469   6.742  10.338
19300SOL    HW159907   4.397   6.791  10.384
19300SOL    HW259908   4.504   6.814  10.282
19301SOL     OW59909   4.605   6.336   0.027
19301SOL    HW159910   4.586   6.411   0.085
19301SOL    HW259911   4.630   6.382  11.045
19302SOL     OW59912   4.418   6.618   9.977
19302SOL    HW159913   4.479   6.594  10.049
19302SOL    HW259914   4.345   6.663  10.023
19303SOL     OW59915   4.043   7.018  10.388
19303SOL    HW159916   3.971   6.975  10.339
19303SOL    HW259917   4.095   7.063  10.319
19304SOL     OW59918   5.196   7.083  10.665
19304SOL    HW159919   5.255   7.161  10.673
19304SOL    HW259920   5.132   7.100  10.736
19305SOL     OW59921   4.175   5.974  10.785
19305SOL    HW159922   4.245   5.907  10.790
19305SOL    HW259923   4.094   5.926  10.805
19306SOL     OW59924   5.353   6.031  10.047
19306SOL    HW159925   5.286   6.068   9.987
19306SOL    HW259926   5.334   6.080  10.129
19307SOL     OW59927   3.944   7.282   9.794
19307SOL    HW159928   3.968   7.365   9.840
19307SOL    HW259929   4.005   7.284   9.718
19308SOL     OW59930   3.967   7.006   9.839
19308SOL    HW159931   3.967   7.104   9.845
19308SOL    HW259932   3.899   6.981   9.903
19309SOL     OW59933   3.974   6.658  10.181
19309SOL    HW159934   3.996   6.585  10.242
19309SOL    HW259935   3.938   6.724  10.243
19310SOL     OW59936   4.318   7.382  10.720
19310SOL    HW159937   4.249   7.354  10.783
19310SOL    HW259938   4.337   7.473  10.750
19311SOL     OW59939   4.298   6.574   9.438
19311SOL    HW159940   4.343   6.625   9.368
19311SOL    HW259941   4.341   6.610   9.517
19312SOL     OW59942   5.316   5.694  10.775
19312SOL    HW159943   5.315   5.786  10.745
19312SOL    HW259944   5.306   5.703  10.870
19313SOL     OW59945   3.834   6.242   9.872
19313SOL    HW159946   3.802   6.150   9.884
19313SOL    HW259947   3.833   6.277   9.963
19314SOL     OW59948   5.578   7.318   9.657
19314SOL    HW159949   5.641   7.305   9.730
19314SOL    HW259950   5.593   7.411   9.633
19315SOL     OW59951   3.791   7.179   9.434
19315SOL    HW159952   3.777   7.084   9.448
19315SOL    HW259953   3.755   7.218   9.516
19316SOL     OW59954   5.408   6.489   9.927
19316SOL    HW159955   5.482   6.457   9.872
19316SOL    HW259956   5.372   6.560   9.871
19317SOL     OW59957   5.362   6.710   9.750
19317SOL    HW159958   5.455   6.705   9.722
19317SOL    HW259959   5.368   6.775   9.824
19318SOL     OW59960   3.837   6.327  10.896
19318SOL    HW159961   3.917   6.362  10.938
19318SOL    HW259962   3.779   6.404  10.897
19319SOL     OW59963   4.316   6.997  10.066
19319SOL    HW159964   4.275   6.908  10.072
19319SOL    HW259965   4.312   7.013   9.970
19320SOL     OW59966   5.021   6.838  10.751
19320SOL    HW159967   5.046   6.776  10.680
19320SOL    HW259968   5.078   6.811  10.824
19321SOL     OW59969   4.552   5.574   9.822
19321SOL    HW159970   4.587   5.665   9.818
19321SOL    HW259971   4.456   5.591   9.821
19322SOL     OW59972   3.906   6.536  10.606
19322SOL    HW159973   3.993   6.507  10.576
19322SOL    HW259974   3.846   6.474  10.563
19323SOL     OW59975   5.270   6.543   9.490
19323SOL    HW159976   5.188   6.502   9.526
19323SOL    HW259977   5.302   6.593   9.566
19324SOL     OW59978   4.927   7.393  10.914
19324SOL    HW159979   4.918   7.458  10.843
19324SOL    HW259980   4.935   7.310  10.864
19325SOL     OW59981   4.073   5.821  11.094
19325SOL    HW159982   4.138   5.885   0.020
19325SOL    HW259983   3.991   5.873   0.002
19326SOL     OW59984   5.177   7.002  10.261
19326SOL    HW159985   5.114   7.020  10.332
19326SOL    HW259986   5.161   6.908  10.240
19327SOL     OW59987   5.387   7.320   9.911
19327SOL    HW159988   5.359   7.285   9.825
19327SOL    HW259989   5.365   7.246   9.970
19328SOL     OW59990   4.318   6.305   9.580
19328SOL    HW159991   4.318   6.389   9.533
19328SOL    HW259992   4.241   6.314   9.639
19329SOL     OW59993   5.002   5.938  10.240
19329SOL    HW159994   4.913   5.898  10.249
19329SOL    HW259995   5.054   5.889  10.307
19330SOL     OW59996   5.294   7.232   9.613
19330SOL    HW159997   5.390   7.242   9.621
19330SOL    HW259998   5.286   7.223   9.516
19331SOL     OW59999   4.527   6.197  10.787
19331SOL    HW160000   4.499   6.163  10.874
19331SOL    HW260001   4.481   6.137  10.724
19332SOL     OW60002   4.692   6.465  10.896
19332SOL    HW160003   4.735   6.391  10.848
19332SOL    HW260004   4.643   6.510  10.825
19333SOL     OW60005   4.699   5.982  10.556
19333SOL    HW160006   4.608   6.002  10.582
19333SOL    HW260007   4.687   5.931  10.475
19334SOL     OW60008   4.760   6.266   9.717
19334SOL    HW160009   4.776   6.285   9.811
19334SOL    HW260010   4.675   6.219   9.720
19335SOL     OW60011   3.831   6.394  10.099
19335SOL    HW160012   3.902   6.387  10.165
19335SOL    HW260013   3.812   6.488  10.103
19336SOL     OW60014   3.842   7.440  10.876
19336SOL    HW160015   3.836   7.383  10.954
19336SOL    HW260016   3.753   7.436  10.840
19337SOL     OW60017   4.612   5.985   9.501
19337SOL    HW160018   4.654   6.043   9.435
19337SOL    HW260019   4.643   5.899   9.474
19338SOL     OW60020   5.084   6.735   9.875
19338SOL    HW160021   5.160   6.727   9.816
19338SOL    HW260022   5.027   6.796   9.824
19339SOL     OW60023   4.269   5.762  10.192
19339SOL    HW160024   4.273   5.783  10.287
19339SOL    HW260025   4.256   5.849  10.151
19340SOL     OW60026   4.716   7.030   9.785
19340SOL    HW160027   4.666   7.091   9.727
19340SOL    HW260028   4.724   7.082   9.866
19341SOL     OW60029   4.077   7.398  10.161
19341SOL    HW160030   4.120   7.312  10.179
19341SOL    HW260031   4.148   7.460  10.182
19342SOL     OW60032   5.542   6.630  10.166
19342SOL    HW160033   5.478   6.611  10.097
19342SOL    HW260034   5.488   6.628  10.246
19343SOL     OW60035   4.956   7.149  10.796
19343SOL    HW160036   4.947   7.074  10.857
19343SOL    HW260037   4.893   7.122  10.727
19344SOL     OW60038   4.023   6.544   9.566
19344SOL    HW160039   4.099   6.567   9.510
19344SOL    HW260040   3.997   6.457   9.530
19345SOL     OW60041   5.200   6.344  10.026
19345SOL    HW160042   5.209   6.311  10.117
19345SOL    HW260043   5.284   6.389  10.011
19346SOL     OW60044   4.187   6.866  11.045
19346SOL    HW160045   4.159   6.868  10.951
19346SOL    HW260046   4.144   6.785  11.076
19347SOL     OW60047   4.843   7.347   9.563
19347SOL    HW160048   4.772   7.299   9.608
19347SOL    HW260049   4.843   7.306   9.475
19348SOL     OW60050   3.902   5.872  10.787
19348SOL    HW160051   3.836   5.938  10.814
19348SOL    HW260052   3.884   5.800  10.848
19349SOL     OW60053   5.346   6.950   9.405
19349SOL    HW160054   5.301   7.034   9.387
19349SOL    HW260055   5.281   6.884   9.373
19350SOL     OW60056   4.173   7.321   9.637
19350SOL    HW160057   4.229   7.374   9.696
19350SOL    HW260058   4.238   7.283   9.575
19351SOL     OW60059   5.122   5.679   9.741
19351SOL    HW160060   5.111   5.639   9.653
19351SOL    HW260061   5.217   5.696   9.745
19352SOL     OW60062   3.962   7.381  10.550
19352SOL    HW160063   4.027   7.327  10.595
19352SOL    HW260064   3.959   7.342  10.462
19353SOL     OW60065   4.688   7.300  10.183
19353SOL    HW160066   4.767   7.248  10.203
19353SOL    HW260067   4.646   7.245  10.114
19354SOL     OW60068   4.104   6.289   9.770
19354SOL    HW160069   4.126   6.194   9.781
19354SOL    HW260070   4.008   6.287   9.789
19355SOL     OW60071   4.348   5.719   9.411
19355SOL    HW160072   4.430   5.672   9.428
19355SOL    HW260073   4.304   5.664   9.343
19356SOL     OW60074   4.494   5.824  11.026
19356SOL    HW160075   4.565   5.798  11.086
19356SOL    HW260076   4.438   5.878  11.084
19357SOL     OW60077   4.614   7.122  10.510
19357SOL    HW160078   4.607   7.093  10.418
19357SOL    HW260079   4.682   7.063  10.546
19358SOL     OW60080   5.062   6.183  10.725
19358SOL    HW160081   5.109   6.162  10.806
19358SOL    HW260082   5.101   6.271  10.703
19359SOL     OW60083   4.534   6.997  10.242
19359SOL    HW160084   4.618   6.985  10.196
19359SOL    HW260085   4.468   6.993  10.171
19360SOL     OW60086   4.676   6.109  10.219
19360SOL    HW160087   4.649   6.100  10.125
19360SOL    HW260088   4.697   6.017  10.240
19361SOL     OW60089   4.275   5.627   9.807
19361SOL    HW160090   4.202   5.638   9.870
19361SOL    HW260091   4.263   5.709   9.753
19362SOL     OW60092   5.171   6.766   9.337
19362SOL    HW160093   5.197   6.687   9.388
19362SOL    HW260094   5.082   6.784   9.369
19363SOL     OW60095   4.009   5.635   9.524
19363SOL    HW160096   3.991   5.717   9.476
19363SOL    HW260097   4.105   5.631   9.521
19364SOL     OW60098   4.660   5.835   9.800
19364SOL    HW160099   4.631   5.886   9.723
19364SOL    HW260100   4.755   5.858   9.804
19365SOL     OW60101   4.813   6.265  10.765
19365SOL    HW160102   4.756   6.186  10.767
19365SOL    HW260103   4.903   6.229  10.755
19366SOL     OW60104   4.939   7.166  10.120
19366SOL    HW160105   4.948   7.224  10.043
19366SOL    HW260106   5.021   7.183  10.169
19367SOL     OW60107   4.185   6.757  10.046
19367SOL    HW160108   4.110   6.722  10.099
19367SOL    HW260109   4.156   6.727   9.957
19368SOL     OW60110   4.979   7.390   9.934
19368SOL    HW160111   5.023   7.457   9.878
19368SOL    HW260112   4.929   7.445   9.996
19369SOL     OW60113   4.770   6.135   9.327
19369SOL    HW160114   4.721   6.217   9.305
19369SOL    HW260115   4.843   6.167   9.382
19370SOL     OW60116   3.799   6.142  10.701
19370SOL    HW160117   3.894   6.136  10.681
19370SOL    HW260118   3.798   6.219  10.761
19371SOL     OW60119   4.295   5.792  10.466
19371SOL    HW160120   4.331   5.732  10.532
19371SOL    HW260121   4.204   5.804  10.499
19372SOL     OW60122   4.603   6.043   9.977
19372SOL    HW160123   4.551   6.092   9.911
19372SOL    HW260124   4.616   5.958   9.933
19373SOL     OW60125   4.777   5.651  10.083
19373SOL    HW160126   4.731   5.644   9.999
19373SOL    HW260127   4.744   5.573  10.132
19374SOL     OW60128   5.143   6.746  10.194
19374SOL    HW160129   5.073   6.682  10.215
19374SOL    HW260130   5.139   6.748  10.097
19375SOL     OW60131   5.228   6.160  10.269
19375SOL    HW160132   5.162   6.090  10.283
19375SOL    HW260133   5.271   6.168  10.356
19376SOL     OW60134   5.556   6.405   9.709
19376SOL    HW160135   5.617   6.350   9.763
19376SOL    HW260136   5.536   6.343   9.636
19377SOL     OW60137   4.217   6.997   9.442
19377SOL    HW160138   4.134   6.981   9.489
19377SOL    HW260139   4.205   6.946   9.360
19378SOL     OW60140   5.399   6.864   9.968
19378SOL    HW160141   5.496   6.867   9.982
19378SOL    HW260142   5.369   6.951   9.998
19379SOL     OW60143   5.131   6.180   9.369
19379SOL    HW160144   5.080   6.148   9.446
19379SOL    HW260145   5.222   6.161   9.394
19380SOL     OW60146   4.244   5.830   9.631
19380SOL    HW160147   4.285   5.798   9.548
19380SOL    HW260148   4.210   5.916   9.599
19381SOL     OW60149   5.472   6.815  10.870
19381SOL    HW160150   5.565   6.788  10.866
19381SOL    HW260151   5.479   6.906  10.903
19382SOL     OW60152   4.779   6.968  10.679
19382SOL    HW160153   4.701   6.920  10.710
19382SOL    HW260154   4.852   6.906  10.700
19383SOL     OW60155   4.829   6.813  10.412
19383SOL    HW160156   4.747   6.821  10.462
19383SOL    HW260157   4.808   6.861  10.329
19384SOL     OW60158   5.354   6.676  10.390
19384SOL    HW160159   5.361   6.740  10.464
19384SOL    HW260160   5.285   6.719  10.337
19385SOL     OW60161   4.632   5.699  10.694
19385SOL    HW160162   4.670   5.675  10.607
19385SOL    HW260163   4.710   5.737  10.738
19386SOL     OW60164   4.445   6.660   9.673
19386SOL    HW160165   4.428   6.637   9.765
19386SOL    HW260166   4.517   6.597   9.649
19387SOL     OW60167   4.154   6.398  10.581
19387SOL    HW160168   4.225   6.400  10.648
19387SOL    HW260169   4.120   6.308  10.592
19388SOL     OW60170   4.986   5.957  10.588
19388SOL    HW160171   5.014   6.040  10.632
19388SOL    HW260172   4.903   5.984  10.545
19389SOL     OW60173   3.799   7.146  10.642
19389SOL    HW160174   3.784   7.238  10.620
19389SOL    HW260175   3.896   7.138  10.642
19390SOL     OW60176   4.096   6.687   9.810
19390SOL    HW160177   4.129   6.746   9.742
19390SOL    HW260178   4.068   6.610   9.758
19391SOL     OW60179   4.268   6.121  10.156
19391SOL    HW160180   4.297   6.185  10.088
19391SOL    HW260181   4.330   6.141  10.228
19392SOL     OW60182   4.947   6.916   9.700
19392SOL    HW160183   4.989   6.994   9.739
19392SOL    HW260184   4.854   6.930   9.727
19393SOL     OW60185   5.007   7.046  10.470
19393SOL    HW160186   5.069   7.048  10.545
19393SOL    HW260187   4.950   6.970  10.490
19394SOL     OW60188   5.300   6.191   9.784
19394SOL    HW160189   5.248   6.243   9.848
19394SOL    HW260190   5.331   6.260   9.724
19395SOL     OW60191   4.071   7.088  10.637
19395SOL    HW160192   4.062   7.061  10.543
19395SOL    HW260193   4.167   7.106  10.643
19396SOL     OW60194   4.178   6.303  10.934
19396SOL    HW160195   4.236   6.346  10.869
19396SOL    HW260196   4.181   6.211  10.906
19397SOL     OW60197   5.342   6.346  10.997
19397SOL    HW160198   5.279   6.416  11.014
19397SOL    HW260199   5.403   6.392  10.936
19398SOL     OW60200   4.284   6.479  10.350
19398SOL    HW160201   4.330   6.564  10.354
19398SOL    HW260202   4.250   6.467  10.441
19399SOL     OW60203   5.048   6.427  10.364
19399SOL    HW160204   4.984   6.403  10.296
19399SOL    HW260205   5.101   6.347  10.372
19400SOL     OW60206   4.946   6.110   9.570
19400SOL    HW160207   4.952   6.039   9.637
19400SOL    HW260208   4.886   6.171   9.615
19401SOL     OW60209   4.009   5.802  10.543
19401SOL    HW160210   3.971   5.833  10.628
19401SOL    HW260211   3.978   5.710  10.543
19402SOL     OW60212   3.778   6.872  10.592
19402SOL    HW160213   3.806   6.816  10.667
19402SOL    HW260214   3.772   6.960  10.632
19403SOL     OW60215   4.433   6.227  10.348
19403SOL    HW160216   4.517   6.218  10.302
19403SOL    HW260217   4.399   6.315  10.321
19404SOL     OW60218   4.026   5.643   9.921
19404SOL    HW160219   4.004   5.736   9.941
19404SOL    HW260220   4.031   5.603  10.010
19405SOL     OW60221   5.327   5.961   9.664
19405SOL    HW160222   5.357   5.899   9.732
19405SOL    HW260223   5.312   6.043   9.717
19406SOL     OW60224   4.771   6.349  10.272
19406SOL    HW160225   4.762   6.362  10.368
19406SOL    HW260226   4.747   6.254  10.262
19407SOL     OW60227   4.714   7.143  10.971
19407SOL    HW160228   4.704   7.207  10.897
19407SOL    HW260229   4.677   7.063  10.930
19408SOL     OW60230   5.580   7.088  10.888
19408SOL    HW160231   5.601   7.113  10.797
19408SOL    HW260232   5.664   7.103  10.934
19409SOL     OW60233   4.111   6.511  11.071
19409SOL    HW160234   4.182   6.514   0.036
19409SOL    HW260235   4.134   6.429  11.023
19410SOL     OW60236   5.243   5.842   9.437
19410SOL    HW160237   5.161   5.798   9.464
19410SOL    HW260238   5.274   5.883   9.520
19411SOL     OW60239   5.002   6.417   9.332
19411SOL    HW160240   5.048   6.332   9.345
19411SOL    HW260241   5.037   6.442   9.244
19412SOL     OW60242   4.785   6.942  10.163
19412SOL    HW160243   4.790   6.872  10.094
19412SOL    HW260244   4.854   7.006  10.137
19413SOL     OW60245   4.011   6.412  10.312
19413SOL    HW160246   4.107   6.427  10.317
19413SOL    HW260247   4.007   6.317  10.330
19414SOL     OW60248   4.052   6.115  10.311
19414SOL    HW160249   4.023   6.025  10.289
19414SOL    HW260250   4.127   6.126  10.248
19415SOL     OW60251   4.880   5.796  10.774
19415SOL    HW160252   4.892   5.871  10.834
19415SOL    HW260253   4.918   5.832  10.692
19416SOL     OW60254   3.724   6.902   9.509
19416SOL    HW160255   3.634   6.913   9.469
19416SOL    HW260256   3.721   6.811   9.542
19417SOL     OW60257   3.823   7.370  10.249
19417SOL    HW160258   3.794   7.294  10.195
19417SOL    HW260259   3.914   7.386  10.217
19418SOL     OW60260   4.214   7.178  10.247
19418SOL    HW160261   4.286   7.239  10.272
19418SOL    HW260262   4.260   7.115  10.188
19419SOL     OW60263   4.701   6.380  10.544
19419SOL    HW160264   4.756   6.339  10.614
19419SOL    HW260265   4.614   6.345  10.566
19420SOL     OW60266   3.752   6.095  10.422
19420SOL    HW160267   3.835   6.099  10.374
19420SOL    HW260268   3.781   6.090  10.514
19421SOL     OW60269   4.520   6.144   9.705
19421SOL    HW160270   4.538   6.087   9.628
19421SOL    HW260271   4.450   6.201   9.670
19422SOL     OW60272   5.373   6.196  10.504
19422SOL    HW160273   5.366   6.133  10.576
19422SOL    HW260274   5.456   6.167  10.460
19423SOL     OW60275   3.955   7.128  11.025
19423SOL    HW160276   3.905   7.160   0.002
19423SOL    HW260277   4.010   7.059  11.064
19424SOL     OW60278   4.417   6.066  10.578
19424SOL    HW160279   4.362   5.993  10.547
19424SOL    HW260280   4.410   6.130  10.505
19425SOL     OW60281   4.670   7.282  10.745
19425SOL    HW160282   4.648   7.248  10.657
19425SOL    HW260283   4.643   7.375  10.742
19426SOL     OW60284   4.171   6.061   9.514
19426SOL    HW160285   4.231   6.137   9.517
19426SOL    HW260286   4.085   6.105   9.502
19427SOL     OW60287   3.879   6.723  10.793
19427SOL    HW160288   3.874   6.671  10.876
19427SOL    HW260289   3.894   6.653  10.726
19428SOL     OW60290   5.025   6.647  10.545
19428SOL    HW160291   5.049   6.578  10.480
19428SOL    HW260292   4.954   6.695  10.498
19429SOL     OW60293   5.027   6.454   9.602
19429SOL    HW160294   4.947   6.419   9.642
19429SOL    HW260295   5.006   6.454   9.507
19430SOL     OW60296   5.480   7.334  10.427
19430SOL    HW160297   5.552   7.350  10.363
19430SOL    HW260298   5.474   7.236  10.425
19431SOL     OW60299   4.957   7.316  10.441
19431SOL    HW160300   5.047   7.335  10.410
19431SOL    HW260301   4.961   7.220  10.455
19432SOL     OW60302   3.833   6.834  10.332
19432SOL    HW160303   3.808   6.849  10.426
19432SOL    HW260304   3.754   6.791  10.298
19433SOL     OW60305   5.444   5.726   9.827
19433SOL    HW160306   5.500   5.707   9.750
19433SOL    HW260307   5.429   5.638   9.867
19434SOL     OW60308   5.088   7.161   9.800
19434SOL    HW160309   5.148   7.177   9.725
19434SOL    HW260310   5.048   7.248   9.815
19435SOL     OW60311   4.975   6.507   9.981
19435SOL    HW160312   5.055   6.454  10.000
19435SOL    HW260313   5.013   6.583   9.933
19436SOL     OW60314   4.522   6.840  10.731
19436SOL    HW160315   4.495   6.877  10.817
19436SOL    HW260316   4.443   6.859  10.677
19437SOL     OW60317   4.383   7.211   9.467
19437SOL    HW160318   4.399   7.219   9.372
19437SOL    HW260319   4.328   7.129   9.469
19438SOL     OW60320   5.351   7.298  10.678
19438SOL    HW160321   5.403   7.314  10.598
19438SOL    HW260322   5.340   7.387  10.716
19439SOL     OW60323   5.573   5.758  10.266
19439SOL    HW160324   5.590   5.663  10.248
19439SOL    HW260325   5.481   5.771  10.232
19440SOL     OW60326   3.971   5.897  10.001
19440SOL    HW160327   3.884   5.940   9.984
19440SOL    HW260328   3.979   5.903  10.098
19441SOL     OW60329   4.903   7.211   9.331
19441SOL    HW160330   4.920   7.118   9.353
19441SOL    HW260331   4.834   7.204   9.263
19442SOL     OW60332   4.547   6.574  10.697
19442SOL    HW160333   4.593   6.559  10.613
19442SOL    HW260334   4.554   6.671  10.709
19443SOL     OW60335   4.633   6.492   9.590
19443SOL    HW160336   4.704   6.529   9.534
19443SOL    HW260337   4.673   6.412   9.626
19444SOL     OW60338   5.268   7.212   9.340
19444SOL    HW160339   5.173   7.222   9.334
19444SOL    HW260340   5.295   7.207   9.246
19445SOL     OW60341   4.099   6.869  10.799
19445SOL    HW160342   4.077   6.942  10.739
19445SOL    HW260343   4.015   6.817  10.796
19446SOL     OW60344   5.337   6.877  10.581
19446SOL    HW160345   5.397   6.861  10.656
19446SOL    HW260346   5.282   6.950  10.616
19447SOL     OW60347   4.763   6.711  10.011
19447SOL    HW160348   4.696   6.661  10.060
19447SOL    HW260349   4.826   6.642   9.986
19448SOL     OW60350   4.757   5.823  10.293
19448SOL    HW160351   4.753   5.776  10.207
19448SOL    HW260352   4.756   5.748  10.356
19449SOL     OW60353   4.349   7.082   9.798
19449SOL    HW160354   4.386   7.035   9.721
19449SOL    HW260355   4.266   7.118   9.765
19450SOL     OW60356   5.432   5.962  10.710
19450SOL    HW160357   5.497   6.034  10.704
19450SOL    HW260358   5.468   5.900  10.642
19451SOL     OW60359   3.971   6.950   9.581
19451SOL    HW160360   3.875   6.931   9.572
19451SOL    HW260361   3.978   6.969   9.677
19452SOL     OW60362   3.859   6.597  11.027
19452SOL    HW160363   3.796   6.582  11.097
19452SOL    HW260364   3.943   6.564  11.064
19453SOL     OW60365   4.386   5.781  10.773
19453SOL    HW160366   4.474   5.766  10.733
19453SOL    HW260367   4.413   5.803  10.865
19454SOL     OW60368   5.158   6.431  10.704
19454SOL    HW160369   5.110   6.506  10.667
19454SOL    HW260370   5.250   6.453  10.685
19455SOL     OW60371   3.767   5.748   9.630
19455SOL    HW160372   3.758   5.817   9.560
19455SOL    HW260373   3.858   5.719   9.609
19456SOL     OW60374   4.922   6.942   9.424
19456SOL    HW160375   4.843   6.887   9.429
19456SOL    HW260376   4.951   6.941   9.518
19457SOL     OW60377   4.357   6.398  10.754
19457SOL    HW160378   4.417   6.474  10.742
19457SOL    HW260379   4.421   6.325  10.768
19458SOL     OW60380   5.233   7.348  10.298
19458SOL    HW160381   5.267   7.387  10.217
19458SOL    HW260382   5.312   7.342  10.354
19459SOL     OW60383   4.453   6.127  11.035
19459SOL    HW160384   4.485   6.204  11.086
19459SOL    HW260385   4.522   6.061  11.054
19460SOL     OW60386   4.101   7.305  10.871
19460SOL    HW160387   4.031   7.371  10.860
19460SOL    HW260388   4.057   7.239  10.929
19461SOL     OW60389   5.420   6.469  10.573
19461SOL    HW160390   5.415   6.380  10.534
19461SOL    HW260391   5.390   6.527  10.500
19462SOL     OW60392   4.943   5.920   9.774
19462SOL    HW160393   5.004   5.845   9.773
19462SOL    HW260394   4.975   5.972   9.851
19463SOL     OW60395   4.327   6.330   9.971
19463SOL    HW160396   4.358   6.418   9.947
19463SOL    HW260397   4.253   6.317   9.910
19464SOL     OW60398   5.495   5.892  10.959
19464SOL    HW160399   5.466   5.914  10.869
19464SOL    HW260400   5.413   5.902  11.009
19465SOL     OW60401   5.467   6.527  10.831
19465SOL    HW160402   5.475   6.624  10.835
19465SOL    HW260403   5.467   6.510  10.735
19466SOL     OW60404   4.572   6.959   9.339
19466SOL    HW160405   4.547   6.970   9.432
19466SOL    HW260406   4.597   7.047   9.309
19467SOL     OW60407   4.401   7.377  10.244
19467SOL    HW160408   4.387   7.471  10.222
19467SOL    HW260409   4.491   7.361  10.214
19468SOL     OW60410   4.610   6.547  10.170
19468SOL    HW160411   4.660   6.473  10.209
19468SOL    HW260412   4.584   6.598  10.248
19469SOL     OW60413   4.812   6.585   9.412
19469SOL    HW160414   4.778   6.635   9.336
19469SOL    HW260415   4.870   6.520   9.368
19470SOL     OW60416   5.580   7.146  10.150
19470SOL    HW160417   5.488   7.130  10.123
19470SOL    HW260418   5.599   7.069  10.206
19471SOL     OW60419   3.807   6.840   9.991
19471SOL    HW160420   3.805   6.776  10.064
19471SOL    HW260421   3.884   6.808   9.941
19472SOL     OW60422   4.404   6.999  10.937
19472SOL    HW160423   4.332   6.947  10.978
19472SOL    HW260424   4.358   7.081  10.913
19473SOL     OW60425   5.526   5.785  10.532
19473SOL    HW160426   5.549   5.693  10.550
19473SOL    HW260427   5.545   5.791  10.436
19474SOL     OW60428   4.154   6.026   9.832
19474SOL    HW160429   4.192   5.954   9.780
19474SOL    HW260430   4.102   5.981   9.900
19475SOL     OW60431   5.449   7.067  10.410
19475SOL    HW160432   5.361   7.035  10.385
19475SOL    HW260433   5.471   7.004  10.481
19476SOL     OW60434   4.067   6.136  10.593
19476SOL    HW160435   4.122   6.075  10.646
19476SOL    HW260436   4.072   6.100  10.503
19477SOL     OW60437   4.557   7.179   9.980
19477SOL    HW160438   4.549   7.207   9.888
19477SOL    HW260439   4.471   7.136   9.994
19478SOL     OW60440   5.151   5.823  10.429
19478SOL    HW160441   5.197   5.754  10.478
19478SOL    HW260442   5.094   5.864  10.497
19479SOL     OW60443   4.747   5.602  10.464
19479SOL    HW160444   4.689   5.536  10.424
19479SOL    HW260445   4.833   5.553  10.466
19480SOL     OW60446   4.515   6.928   9.617
19480SOL    HW160447   4.481   6.837   9.618
19480SOL    HW260448   4.589   6.922   9.680
19481SOL     OW60449   4.341   7.132  10.605
19481SOL    HW160450   4.343   7.223  10.641
19481SOL    HW260451   4.425   7.131  10.555
19482SOL     OW60452   5.044   5.627   9.468
19482SOL    HW160453   5.062   5.553   9.409
19482SOL    HW260454   4.955   5.605   9.502
19483SOL     OW60455   5.008   6.059   9.995
19483SOL    HW160456   4.946   6.134   9.996
19483SOL    HW260457   4.995   6.019  10.083
19484SOL     OW60458   5.323   5.793  10.183
19484SOL    HW160459   5.246   5.808  10.240
19484SOL    HW260460   5.327   5.872  10.127
19485SOL     OW60461   3.770   6.656   9.639
19485SOL    HW160462   3.863   6.640   9.615
19485SOL    HW260463   3.737   6.564   9.642
19486SOL     OW60464   4.601   7.232   9.636
19486SOL    HW160465   4.523   7.219   9.578
19486SOL    HW260466   4.582   7.316   9.682
19487SOL     OW60467   3.976   8.102   0.149
19487SOL    HW160468   3.888   8.072   0.174
19487SOL    HW260469   3.990   8.065   0.061
19488SOL     OW60470   3.956   7.725   0.996
19488SOL    HW160471   3.976   7.707   1.090
19488SOL    HW260472   3.868   7.684   0.987
19489SOL     OW60473   3.731   7.840   0.641
19489SOL    HW160474   3.650   7.862   0.692
19489SOL    HW260475   3.700   7.766   0.588
19490SOL     OW60476   4.295   8.743   1.188
19490SOL    HW160477   4.204   8.740   1.155
19490SOL    HW260478   4.302   8.834   1.222
19491SOL     OW60479   5.271   8.969   0.709
19491SOL    HW160480   5.231   8.948   0.796
19491SOL    HW260481   5.195   8.972   0.648
19492SOL     OW60482   4.829   8.153   0.700
19492SOL    HW160483   4.891   8.227   0.691
19492SOL    HW260484   4.815   8.150   0.796
19493SOL     OW60485   5.511   8.047   0.229
19493SOL    HW160486   5.465   8.076   0.150
19493SOL    HW260487   5.450   7.983   0.268
19494SOL     OW60488   4.452   8.610   1.013
19494SOL    HW160489   4.393   8.652   1.079
19494SOL    HW260490   4.496   8.688   0.977
19495SOL     OW60491   4.606   8.197   1.802
19495SOL    HW160492   4.582   8.256   1.875
19495SOL    HW260493   4.631   8.260   1.731
19496SOL     OW60494   4.423   8.471   0.641
19496SOL    HW160495   4.466   8.443   0.723
19496SOL    HW260496   4.341   8.514   0.675
19497SOL     OW60497   4.422   8.600   1.802
19497SOL    HW160498   4.462   8.685   1.829
19497SOL    HW260499   4.333   8.627   1.772
19498SOL     OW60500   4.045   8.872   1.075
19498SOL    HW160501   3.970   8.830   1.029
19498SOL    HW260502   4.091   8.923   1.006
19499SOL     OW60503   5.193   8.956   1.368
19499SOL    HW160504   5.250   9.034   1.384
19499SOL    HW260505   5.128   8.963   1.440
19500SOL     OW60506   4.151   7.849   1.515
19500SOL    HW160507   4.225   7.787   1.516
19500SOL    HW260508   4.074   7.791   1.501
19501SOL     OW60509   5.342   7.907   0.738
19501SOL    HW160510   5.256   7.936   0.706
19501SOL    HW260511   5.360   7.971   0.807
19502SOL     OW60512   3.956   9.161   0.505
19502SOL    HW160513   3.994   9.244   0.539
19502SOL    HW260514   3.987   9.161   0.414
19503SOL     OW60515   4.847   8.793   1.666
19503SOL    HW160516   4.892   8.791   1.751
19503SOL    HW260517   4.801   8.707   1.669
19504SOL     OW60518   3.972   8.871   0.526
19504SOL    HW160519   3.967   8.967   0.539
19504SOL    HW260520   3.904   8.839   0.588
19505SOL     OW60521   3.991   8.537   0.902
19505SOL    HW160522   3.987   8.463   0.965
19505SOL    HW260523   3.937   8.604   0.948
19506SOL     OW60524   4.331   9.237   1.418
19506SOL    HW160525   4.252   9.211   1.469
19506SOL    HW260526   4.349   9.328   1.449
19507SOL     OW60527   4.325   8.424   0.149
19507SOL    HW160528   4.352   8.494   0.088
19507SOL    HW260529   4.356   8.459   0.234
19508SOL     OW60530   5.340   7.565   1.505
19508SOL    HW160531   5.351   7.639   1.443
19508SOL    HW260532   5.342   7.611   1.590
19509SOL     OW60533   3.826   8.105   0.557
19509SOL    HW160534   3.810   8.011   0.580
19509SOL    HW260535   3.828   8.149   0.644
19510SOL     OW60536   5.567   9.187   0.360
19510SOL    HW160537   5.630   9.163   0.431
19510SOL    HW260538   5.592   9.279   0.343
19511SOL     OW60539   3.792   9.047   0.124
19511SOL    HW160540   3.772   8.958   0.156
19511SOL    HW260541   3.761   9.102   0.198
19512SOL     OW60542   5.415   8.348   0.610
19512SOL    HW160543   5.508   8.324   0.595
19512SOL    HW260544   5.399   8.413   0.540
19513SOL     OW60545   5.356   8.568   0.435
19513SOL    HW160546   5.436   8.583   0.382
19513SOL    HW260547   5.368   8.630   0.509
19514SOL     OW60548   3.845   8.191   1.583
19514SOL    HW160549   3.940   8.212   1.583
19514SOL    HW260550   3.809   8.272   1.624
19515SOL     OW60551   4.312   8.853   0.742
19515SOL    HW160552   4.278   8.762   0.748
19515SOL    HW260553   4.298   8.872   0.647
19516SOL     OW60554   5.014   8.684   1.423
19516SOL    HW160555   5.048   8.615   1.364
19516SOL    HW260556   5.068   8.670   1.504
19517SOL     OW60557   4.563   7.438   0.511
19517SOL    HW160558   4.591   7.530   0.493
19517SOL    HW260559   4.466   7.447   0.508
19518SOL     OW60560   3.889   8.413   1.262
19518SOL    HW160561   3.980   8.381   1.258
19518SOL    HW260562   3.840   8.348   1.212
19519SOL     OW60563   5.262   8.426   0.208
19519SOL    HW160564   5.185   8.378   0.244
19519SOL    HW260565   5.294   8.474   0.286
19520SOL     OW60566   4.894   9.251   1.620
19520SOL    HW160567   4.902   9.311   1.545
19520SOL    HW260568   4.922   9.166   1.580
19521SOL     OW60569   4.058   7.676   1.786
19521SOL    HW160570   4.102   7.755   1.819
19521SOL    HW260571   3.965   7.696   1.811
19522SOL     OW60572   5.192   8.877   0.962
19522SOL    HW160573   5.132   8.897   1.037
19522SOL    HW260574   5.163   8.787   0.937
19523SOL     OW60575   5.381   9.192   0.598
19523SOL    HW160576   5.391   9.146   0.513
19523SOL    HW260577   5.354   9.119   0.656
19524SOL     OW60578   4.311   8.168   0.278
19524SOL    HW160579   4.312   8.248   0.223
19524SOL    HW260580   4.238   8.185   0.341
19525SOL     OW60581   4.996   7.780   0.921
19525SOL    HW160582   4.906   7.751   0.946
19525SOL    HW260583   5.051   7.737   0.991
19526SOL     OW60584   5.288   9.088   0.314
19526SOL    HW160585   5.376   9.126   0.305
19526SOL    HW260586   5.266   9.072   0.220
19527SOL     OW60587   4.524   8.078   1.451
19527SOL    HW160588   4.508   8.046   1.543
19527SOL    HW260589   4.469   8.015   1.400
19528SOL     OW60590   5.124   7.929   1.673
19528SOL    HW160591   5.129   7.985   1.753
19528SOL    HW260592   5.182   7.854   1.697
19529SOL     OW60593   4.695   8.336   1.583
19529SOL    HW160594   4.740   8.256   1.549
19529SOL    HW260595   4.647   8.367   1.504
19530SOL     OW60596   4.725   7.824   1.258
19530SOL    HW160597   4.650   7.867   1.299
19530SOL    HW260598   4.688   7.790   1.176
19531SOL     OW60599   4.762   8.129   0.413
19531SOL    HW160600   4.773   8.144   0.509
19531SOL    HW260601   4.678   8.078   0.411
19532SOL     OW60602   3.838   8.264   0.774
19532SOL    HW160603   3.904   8.261   0.846
19532SOL    HW260604   3.782   8.337   0.803
19533SOL     OW60605   3.830   9.281   1.566
19533SOL    HW160606   3.845   9.260   1.661
19533SOL    HW260607   3.734   9.279   1.560
19534SOL     OW60608   4.607   7.829   0.205
19534SOL    HW160609   4.657   7.878   0.137
19534SOL    HW260610   4.627   7.736   0.181
19535SOL     OW60611   5.446   8.040   1.836
19535SOL    HW160612   5.409   8.117   1.788
19535SOL    HW260613   5.477   7.984   1.763
19536SOL     OW60614   5.078   8.605   0.559
19536SOL    HW160615   5.164   8.591   0.517
19536SOL    HW260616   5.039   8.673   0.499
19537SOL     OW60617   4.275   7.632   0.901
19537SOL    HW160618   4.287   7.662   0.993
19537SOL    HW260619   4.262   7.714   0.851
19538SOL     OW60620   4.713   8.877   0.490
19538SOL    HW160621   4.672   8.943   0.430
19538SOL    HW260622   4.719   8.928   0.572
19539SOL     OW60623   4.065   9.264   0.850
19539SOL    HW160624   4.113   9.180   0.865
19539SOL    HW260625   4.132   9.330   0.872
19540SOL     OW60626   5.541   8.503   0.889
19540SOL    HW160627   5.486   8.496   0.809
19540SOL    HW260628   5.478   8.486   0.961
19541SOL     OW60629   4.948   9.015   1.492
19541SOL    HW160630   4.927   8.944   1.555
19541SOL    HW260631   4.900   8.986   1.414
19542SOL     OW60632   4.038   8.413   0.274
19542SOL    HW160633   4.112   8.414   0.212
19542SOL    HW260634   3.997   8.327   0.256
19543SOL     OW60635   5.187   8.211   0.715
19543SOL    HW160636   5.195   8.172   0.803
19543SOL    HW260637   5.274   8.255   0.703
19544SOL     OW60638   4.186   8.719   1.720
19544SOL    HW160639   4.143   8.726   1.631
19544SOL    HW260640   4.107   8.721   1.777
19545SOL     OW60641   4.808   9.223   0.207
19545SOL    HW160642   4.761   9.168   0.272
19545SOL    HW260643   4.848   9.156   0.147
19546SOL     OW60644   3.897   7.740   1.498
19546SOL    HW160645   3.823   7.795   1.527
19546SOL    HW260646   3.876   7.655   1.540
19547SOL     OW60647   5.347   8.788   0.096
19547SOL    HW160648   5.307   8.873   0.071
19547SOL    HW260649   5.296   8.724   0.043
19548SOL     OW60650   4.183   9.194   0.305
19548SOL    HW160651   4.221   9.236   0.383
19548SOL    HW260652   4.260   9.191   0.245
19549SOL     OW60653   5.132   7.526   0.465
19549SOL    HW160654   5.133   7.502   0.371
19549SOL    HW260655   5.220   7.566   0.476
19550SOL     OW60656   3.973   9.248   1.231
19550SOL    HW160657   4.021   9.175   1.273
19550SOL    HW260658   3.956   9.213   1.143
19551SOL     OW60659   4.678   9.152   0.882
19551SOL    HW160660   4.764   9.109   0.892
19551SOL    HW260661   4.634   9.094   0.816
19552SOL     OW60662   4.094   8.140   0.466
19552SOL    HW160663   4.108   8.043   0.473
19552SOL    HW260664   4.001   8.147   0.495
19553SOL     OW60665   5.265   7.708   1.733
19553SOL    HW160666   5.262   7.711   1.832
19553SOL    HW260667   5.200   7.639   1.715
19554SOL     OW60668   4.348   7.534   0.105
19554SOL    HW160669   4.444   7.535   0.121
19554SOL    HW260670   4.341   7.535   0.009
19555SOL     OW60671   4.496   7.709   1.734
19555SOL    HW160672   4.577   7.655   1.745
19555SOL    HW260673   4.444   7.685   1.813
19556SOL     OW60674   4.604   8.993   1.194
19556SOL    HW160675   4.596   8.965   1.102
19556SOL    HW260676   4.666   8.927   1.231
19557SOL     OW60677   5.056   8.046   1.430
19557SOL    HW160678   5.096   8.016   1.514
19557SOL    HW260679   5.104   8.128   1.411
19558SOL     OW60680   4.539   8.855   0.933
19558SOL    HW160681   4.618   8.848   0.878
19558SOL    HW260682   4.469   8.874   0.868
19559SOL     OW60683   4.669   7.968   0.905
19559SOL    HW160684   4.646   7.950   0.811
19559SOL    HW260685   4.688   7.879   0.938
19560SOL     OW60686   4.301   7.491   0.506
19560SOL    HW160687   4.219   7.503   0.558
19560SOL    HW260688   4.291   7.566   0.444
19561SOL     OW60689   5.164   8.609   0.001
19561SOL    HW160690   5.202   8.547   0.066
19561SOL    HW260691   5.092   8.651   0.049
19562SOL     OW60692   4.000   7.512   0.230
19562SOL    HW160693   4.030   7.561   0.151
19562SOL    HW260694   4.071   7.446   0.241
19563SOL     OW60695   4.660   7.701   0.470
19563SOL    HW160696   4.638   7.750   0.389
19563SOL    HW260697   4.757   7.714   0.475
19564SOL     OW60698   4.806   8.124   1.464
19564SOL    HW160699   4.753   8.044   1.470
19564SOL    HW260700   4.898   8.091   1.462
19565SOL     OW60701   4.952   9.029   0.807
19565SOL    HW160702   4.959   9.096   0.735
19565SOL    HW260703   5.029   9.050   0.861
19566SOL     OW60704   4.201   8.596   0.733
19566SOL    HW160705   4.130   8.573   0.795
19566SOL    HW260706   4.156   8.579   0.647
19567SOL     OW60707   4.979   9.247   0.640
19567SOL    HW160708   5.033   9.306   0.584
19567SOL    HW260709   4.934   9.310   0.698
19568SOL     OW60710   4.752   7.970   0.024
19568SOL    HW160711   4.715   8.060   0.027
19568SOL    HW260712   4.846   7.986   0.041
19569SOL     OW60713   3.767   8.012   1.399
19569SOL    HW160714   3.862   8.002   1.383
19569SOL    HW260715   3.765   8.089   1.459
19570SOL     OW60716   4.297   7.681   1.170
19570SOL    HW160717   4.339   7.622   1.234
19570SOL    HW260718   4.203   7.675   1.196
19571SOL     OW60719   4.613   7.893   0.657
19571SOL    HW160720   4.557   7.948   0.602
19571SOL    HW260721   4.622   7.814   0.601
19572SOL     OW60722   4.728   7.502   0.784
19572SOL    HW160723   4.688   7.489   0.697
19572SOL    HW260724   4.714   7.419   0.830
19573SOL     OW60725   5.142   8.627   0.889
19573SOL    HW160726   5.118   8.537   0.915
19573SOL    HW260727   5.165   8.616   0.795
19574SOL     OW60728   5.198   8.047   0.981
19574SOL    HW160729   5.153   7.962   0.990
19574SOL    HW260730   5.261   8.046   1.055
19575SOL     OW60731   5.586   8.282   0.379
19575SOL    HW160732   5.636   8.227   0.442
19575SOL    HW260733   5.560   8.215   0.315
19576SOL     OW60734   4.217   8.885   0.133
19576SOL    HW160735   4.139   8.863   0.188
19576SOL    HW260736   4.219   8.812   0.068
19577SOL     OW60737   5.387   8.725   0.659
19577SOL    HW160738   5.484   8.734   0.663
19577SOL    HW260739   5.355   8.816   0.676
19578SOL     OW60740   5.109   8.050   0.092
19578SOL    HW160741   5.070   8.010   0.172
19578SOL    HW260742   5.169   7.981   0.062
19579SOL     OW60743   4.249   7.676   0.318
19579SOL    HW160744   4.275   7.624   0.240
19579SOL    HW260745   4.213   7.756   0.277
19580SOL     OW60746   5.453   8.678   1.573
19580SOL    HW160747   5.543   8.640   1.576
19580SOL    HW260748   5.474   8.771   1.588
19581SOL     OW60749   4.795   8.804   1.323
19581SOL    HW160750   4.717   8.773   1.373
19581SOL    HW260751   4.867   8.758   1.373
19582SOL     OW60752   5.328   9.050   1.635
19582SOL    HW160753   5.334   9.092   1.547
19582SOL    HW260754   5.412   9.001   1.639
19583SOL     OW60755   4.821   8.676   1.082
19583SOL    HW160756   4.790   8.716   1.164
19583SOL    HW260757   4.784   8.734   1.014
19584SOL     OW60758   5.323   8.539   1.078
19584SOL    HW160759   5.337   8.601   1.152
19584SOL    HW260760   5.273   8.596   1.017
19585SOL     OW60761   4.649   7.537   1.412
19585SOL    HW160762   4.676   7.527   1.319
19585SOL    HW260763   4.726   7.583   1.450
19586SOL     OW60764   4.719   8.562   1.743
19586SOL    HW160765   4.626   8.580   1.765
19586SOL    HW260766   4.712   8.488   1.680
19587SOL     OW60767   4.460   8.524   0.373
19587SOL    HW160768   4.443   8.501   0.467
19587SOL    HW260769   4.539   8.470   0.350
19588SOL     OW60770   4.140   8.262   1.261
19588SOL    HW160771   4.212   8.264   1.328
19588SOL    HW260772   4.100   8.175   1.276
19589SOL     OW60773   5.018   7.829   1.270
19589SOL    HW160774   5.037   7.909   1.324
19589SOL    HW260775   4.925   7.842   1.247
19590SOL     OW60776   3.798   9.016   1.341
19590SOL    HW160777   3.796   9.110   1.317
19590SOL    HW260778   3.894   8.997   1.341
19591SOL     OW60779   4.082   8.548   0.504
19591SOL    HW160780   4.080   8.626   0.447
19591SOL    HW260781   4.064   8.477   0.440
19592SOL     OW60782   4.280   7.987   0.874
19592SOL    HW160783   4.306   8.050   0.803
19592SOL    HW260784   4.345   8.006   0.943
19593SOL     OW60785   4.948   8.785   0.396
19593SOL    HW160786   5.000   8.863   0.423
19593SOL    HW260787   4.858   8.812   0.424
19594SOL     OW60788   5.022   8.921   1.168
19594SOL    HW160789   5.087   8.924   1.241
19594SOL    HW260790   4.955   8.859   1.202
19595SOL     OW60791   5.298   8.076   0.478
19595SOL    HW160792   5.253   8.126   0.548
19595SOL    HW260793   5.325   8.147   0.419
19596SOL     OW60794   4.059   8.965   1.320
19596SOL    HW160795   4.051   8.924   1.231
19596SOL    HW260796   4.154   8.986   1.320
19597SOL     OW60797   4.168   8.176   1.626
19597SOL    HW160798   4.222   8.221   1.557
19597SOL    HW260799   4.199   8.085   1.617
19598SOL     OW60800   5.351   8.227   1.684
19598SOL    HW160801   5.261   8.262   1.678
19598SOL    HW260802   5.394   8.270   1.606
19599SOL     OW60803   4.726   7.566   1.769
19599SOL    HW160804   4.792   7.636   1.755
19599SOL    HW260805   4.769   7.491   1.726
19600SOL     OW60806   4.223   7.459   1.754
19600SOL    HW160807   4.179   7.410   1.682
19600SOL    HW260808   4.162   7.534   1.765
19601SOL     OW60809   4.339   8.345   1.056
19601SOL    HW160810   4.355   8.440   1.044
19601SOL    HW260811   4.268   8.344   1.122
19602SOL     OW60812   5.075   8.309   1.012
19602SOL    HW160813   4.988   8.268   1.001
19602SOL    HW260814   5.131   8.231   1.022
19603SOL     OW60815   4.957   7.951   0.293
19603SOL    HW160816   4.964   7.876   0.355
19603SOL    HW260817   4.888   8.005   0.335
19604SOL     OW60818   4.035   7.652   1.249
19604SOL    HW160819   3.988   7.681   1.329
19604SOL    HW260820   4.004   7.560   1.241
19605SOL     OW60821   3.760   8.752   1.283
19605SOL    HW160822   3.782   8.695   1.359
19605SOL    HW260823   3.766   8.841   1.319
19606SOL     OW60824   4.448   8.092   1.060
19606SOL    HW160825   4.531   8.088   1.012
19606SOL    HW260826   4.420   8.186   1.052
19607SOL     OW60827   5.485   8.397   1.849
19607SOL    HW160828   5.437   8.336   1.791
19607SOL    HW260829   5.419   8.410   1.919
19608SOL     OW60830   4.051   7.525   0.610
19608SOL    HW160831   4.020   7.612   0.640
19608SOL    HW260832   4.040   7.472   0.691
19609SOL     OW60833   5.298   7.826   0.373
19609SOL    HW160834   5.343   7.767   0.434
19609SOL    HW260835   5.296   7.911   0.422
19610SOL     OW60836   4.791   8.204   0.980
19610SOL    HW160837   4.763   8.218   1.073
19610SOL    HW260838   4.758   8.113   0.964
19611SOL     OW60839   4.703   9.012   1.705
19611SOL    HW160840   4.693   9.061   1.621
19611SOL    HW260841   4.739   8.926   1.676
19612SOL     OW60842   5.576   8.938   1.601
19612SOL    HW160843   5.600   8.967   1.512
19612SOL    HW260844   5.655   8.966   1.653
19613SOL     OW60845   4.075   8.350   1.802
19613SOL    HW160846   4.154   8.374   1.852
19613SOL    HW260847   4.106   8.275   1.747
19614SOL     OW60848   5.246   7.726   0.108
19614SOL    HW160849   5.183   7.663   0.145
19614SOL    HW260850   5.287   7.761   0.188
19615SOL     OW60851   4.999   8.289   0.027
19615SOL    HW160852   5.046   8.205   0.045
19615SOL    HW260853   5.048   8.321  11.052
19616SOL     OW60854   4.800   8.809   0.836
19616SOL    HW160855   4.872   8.746   0.828
19616SOL    HW260856   4.849   8.893   0.827
19617SOL     OW60857   4.002   8.255   0.997
19617SOL    HW160858   4.094   8.265   0.967
19617SOL    HW260859   4.003   8.164   1.029
19618SOL     OW60860   4.049   7.984   1.004
19618SOL    HW160861   4.023   7.892   0.987
19618SOL    HW260862   4.126   7.992   0.943
19619SOL     OW60863   4.881   7.815   1.700
19619SOL    HW160864   4.832   7.871   1.764
19619SOL    HW260865   4.967   7.861   1.697
19620SOL     OW60866   4.894   7.642   1.488
19620SOL    HW160867   4.890   7.711   1.558
19620SOL    HW260868   4.938   7.690   1.417
19621SOL     OW60869   3.719   8.797   0.220
19621SOL    HW160870   3.634   8.801   0.171
19621SOL    HW260871   3.729   8.700   0.230
19622SOL     OW60872   3.819   9.227   0.939
19622SOL    HW160873   3.791   9.158   0.876
19622SOL    HW260874   3.910   9.246   0.907
19623SOL     OW60875   4.204   9.024   0.919
19623SOL    HW160876   4.276   9.088   0.931
19623SOL    HW260877   4.240   8.965   0.851
19624SOL     OW60878   4.698   8.216   1.238
19624SOL    HW160879   4.751   8.186   1.315
19624SOL    HW260880   4.609   8.196   1.269
19625SOL     OW60881   3.760   7.974   1.110
19625SOL    HW160882   3.842   7.960   1.061
19625SOL    HW260883   3.791   7.983   1.201
19626SOL     OW60884   3.947   7.965   1.712
19626SOL    HW160885   4.002   7.922   1.644
19626SOL    HW260886   3.899   8.032   1.660
19627SOL     OW60887   5.113   8.353   1.647
19627SOL    HW160888   5.132   8.447   1.656
19627SOL    HW260889   5.107   8.341   1.551
19628SOL     OW60890   4.524   8.010   0.387
19628SOL    HW160891   4.542   7.942   0.319
19628SOL    HW260892   4.452   8.061   0.348
19629SOL     OW60893   5.358   8.065   1.209
19629SOL    HW160894   5.338   7.997   1.274
19629SOL    HW260895   5.442   8.032   1.171
19630SOL     OW60896   3.978   8.990   1.719
19630SOL    HW160897   3.964   9.052   1.791
19630SOL    HW260898   3.987   8.905   1.767
19631SOL     OW60899   4.391   7.928   1.267
19631SOL    HW160900   4.354   7.847   1.227
19631SOL    HW260901   4.404   7.987   1.190
19632SOL     OW60902   4.654   9.144   1.476
19632SOL    HW160903   4.631   9.118   1.386
19632SOL    HW260904   4.649   9.241   1.472
19633SOL     OW60905   4.174   7.915   0.197
19633SOL    HW160906   4.238   7.987   0.207
19633SOL    HW260907   4.090   7.963   0.207
19634SOL     OW60908   3.835   8.574   1.471
19634SOL    HW160909   3.849   8.520   1.552
19634SOL    HW260910   3.850   8.509   1.399
19635SOL     OW60911   5.045   8.490   1.226
19635SOL    HW160912   5.061   8.433   1.148
19635SOL    HW260913   4.971   8.544   1.194
19636SOL     OW60914   5.032   8.305   0.307
19636SOL    HW160915   4.953   8.262   0.340
19636SOL    HW260916   5.021   8.300   0.211
19637SOL     OW60917   5.475   9.197   1.124
19637SOL    HW160918   5.550   9.214   1.064
19637SOL    HW260919   5.466   9.099   1.114
19638SOL     OW60920   4.963   9.177   1.100
19638SOL    HW160921   5.052   9.205   1.074
19638SOL    HW260922   4.977   9.082   1.118
19639SOL     OW60923   3.823   8.706   1.029
19639SOL    HW160924   3.793   8.723   1.122
19639SOL    HW260925   3.748   8.655   0.994
19640SOL     OW60926   4.419   9.094   1.738
19640SOL    HW160927   4.387   9.182   1.714
19640SOL    HW260928   4.508   9.092   1.699
19641SOL     OW60929   4.640   7.566   0.151
19641SOL    HW160930   4.683   7.524   0.076
19641SOL    HW260931   4.683   7.518   0.223
19642SOL     OW60932   5.409   7.597   0.508
19642SOL    HW160933   5.482   7.580   0.446
19642SOL    HW260934   5.408   7.515   0.562
19643SOL     OW60935   5.086   9.010   0.480
19643SOL    HW160936   5.157   9.024   0.414
19643SOL    HW260937   5.052   9.100   0.489
19644SOL     OW60938   3.871   9.242   1.827
19644SOL    HW160939   3.830   9.171   1.880
19644SOL    HW260940   3.917   9.291   1.897
19645SOL     OW60941   4.970   8.380   0.644
19645SOL    HW160942   5.046   8.324   0.669
19645SOL    HW260943   5.019   8.456   0.603
19646SOL     OW60944   4.534   8.711   1.425
19646SOL    HW160945   4.506   8.754   1.509
19646SOL    HW260946   4.456   8.727   1.369
19647SOL     OW60947   4.409   9.071   0.168
19647SOL    HW160948   4.414   9.081   0.072
19647SOL    HW260949   4.343   8.998   0.175
19648SOL     OW60950   5.351   9.170   1.388
19648SOL    HW160951   5.394   9.186   1.302
19648SOL    HW260952   5.339   9.262   1.421
19649SOL     OW60953   5.581   7.610   0.979
19649SOL    HW160954   5.598   7.520   0.944
19649SOL    HW260955   5.496   7.634   0.937
19650SOL     OW60956   3.981   7.767   0.710
19650SOL    HW160957   3.890   7.797   0.686
19650SOL    HW260958   3.981   7.779   0.806
19651SOL     OW60959   4.935   9.047   0.039
19651SOL    HW160960   4.941   8.952   0.058
19651SOL    HW260961   4.869   9.049  11.069
19652SOL     OW60962   4.548   8.449   1.379
19652SOL    HW160963   4.588   8.453   1.291
19652SOL    HW260964   4.546   8.543   1.405
19653SOL     OW60965   4.665   8.378   0.312
19653SOL    HW160966   4.699   8.401   0.223
19653SOL    HW260967   4.683   8.282   0.316
19654SOL     OW60968   5.238   9.045   0.046
19654SOL    HW160969   5.143   9.064   0.040
19654SOL    HW260970   5.272   9.068  11.061
19655SOL     OW60971   4.058   8.728   1.488
19655SOL    HW160972   4.052   8.799   1.423
19655SOL    HW260973   3.978   8.676   1.473
19656SOL     OW60974   5.323   8.757   1.264
19656SOL    HW160975   5.370   8.730   1.344
19656SOL    HW260976   5.266   8.828   1.299
19657SOL     OW60977   4.757   7.680   0.987
19657SOL    HW160978   4.744   7.633   0.902
19657SOL    HW260979   4.758   7.605   1.050
19658SOL     OW60980   4.345   8.953   0.488
19658SOL    HW160981   4.391   8.900   0.419
19658SOL    HW260982   4.265   8.981   0.442
19659SOL     OW60983   5.434   7.822   1.384
19659SOL    HW160984   5.496   7.897   1.385
19659SOL    HW260985   5.480   7.758   1.326
19660SOL     OW60986   3.977   8.817   0.267
19660SOL    HW160987   3.881   8.817   0.247
19660SOL    HW260988   3.976   8.839   0.363
19661SOL     OW60989   3.851   8.448   1.701
19661SOL    HW160990   3.782   8.441   1.770
19661SOL    HW260991   3.933   8.422   1.749
19662SOL     OW60992   4.392   7.620   1.493
19662SOL    HW160993   4.481   7.591   1.467
19662SOL    HW260994   4.411   7.663   1.579
19663SOL     OW60995   3.843   7.827   0.007
19663SOL    HW160996   3.767   7.772  11.083
19663SOL    HW260997   3.815   7.913  11.073
19664SOL     OW60998   5.173   8.303   1.377
19664SOL    HW160999   5.131   8.371   1.322
19664SOL    HW261000   5.266   8.333   1.380
19665SOL     OW61001   3.767   7.613   0.332
19665SOL    HW161002   3.768   7.694   0.278
19665SOL    HW261003   3.857   7.578   0.315
19666SOL     OW61004   4.922   8.785   0.124
19666SOL    HW161005   4.826   8.778   0.112
19666SOL    HW261006   4.932   8.776   0.220
19667SOL     OW61007   4.341   8.271   1.433
19667SOL    HW161008   4.398   8.350   1.431
19667SOL    HW261009   4.410   8.202   1.438
19668SOL     OW61010   5.236   9.210   0.952
19668SOL    HW161011   5.264   9.269   0.881
19668SOL    HW261012   5.316   9.203   1.007
19669SOL     OW61013   4.459   7.982   1.689
19669SOL    HW161014   4.492   8.042   1.758
19669SOL    HW261015   4.467   7.894   1.728
19670SOL     OW61016   5.187   8.626   1.625
19670SOL    HW161017   5.179   8.634   1.723
19670SOL    HW261018   5.282   8.645   1.611
19671SOL     OW61019   4.100   9.183   1.560
19671SOL    HW161020   4.013   9.225   1.544
19671SOL    HW261021   4.072   9.101   1.605
19672SOL     OW61022   5.428   8.328   1.228
19672SOL    HW161023   5.391   8.238   1.214
19672SOL    HW261024   5.378   8.384   1.166
19673SOL     OW61025   4.939   7.759   0.487
19673SOL    HW161026   5.005   7.688   0.477
19673SOL    HW261027   4.976   7.812   0.559
19674SOL     OW61028   4.318   8.188   0.674
19674SOL    HW161029   4.346   8.275   0.643
19674SOL    HW261030   4.249   8.166   0.610
19675SOL     OW61031   5.491   7.824   1.642
19675SOL    HW161032   5.458   7.832   1.551
19675SOL    HW261033   5.414   7.782   1.686
19676SOL     OW61034   5.453   8.378   1.490
19676SOL    HW161035   5.473   8.473   1.495
19676SOL    HW261036   5.473   8.357   1.396
19677SOL     OW61037   4.630   8.807   0.056
19677SOL    HW161038   4.536   8.802   0.078
19677SOL    HW261039   4.635   8.884  11.099
19678SOL     OW61040   4.366   9.251   0.912
19678SOL    HW161041   4.347   9.345   0.896
19678SOL    HW261042   4.462   9.249   0.925
19679SOL     OW61043   4.637   8.411   0.827
19679SOL    HW161044   4.665   8.332   0.875
19679SOL    HW261045   4.603   8.465   0.900
19680SOL     OW61046   4.765   8.440   0.070
19680SOL    HW161047   4.773   8.504  11.100
19680SOL    HW261048   4.847   8.389   0.060
19681SOL     OW61049   5.564   8.998   0.812
19681SOL    HW161050   5.468   8.994   0.808
19681SOL    HW261051   5.586   8.939   0.885
19682SOL     OW61052   3.967   8.761   1.866
19682SOL    HW161053   3.890   8.704   1.853
19682SOL    HW261054   3.964   8.775   1.963
19683SOL     OW61055   3.813   8.694   0.661
19683SOL    HW161056   3.819   8.644   0.744
19683SOL    HW261057   3.880   8.650   0.606
19684SOL     OW61058   4.400   8.852   1.622
19684SOL    HW161059   4.322   8.801   1.649
19684SOL    HW261060   4.387   8.936   1.670
19685SOL     OW61061   5.544   7.622   1.240
19685SOL    HW161062   5.559   7.527   1.245
19685SOL    HW261063   5.561   7.638   1.145
19686SOL     OW61064   4.152   7.876   0.510
19686SOL    HW161065   4.196   7.805   0.461
19686SOL    HW261066   4.109   7.831   0.584
19687SOL     OW61067   5.445   8.938   1.084
19687SOL    HW161068   5.361   8.908   1.045
19687SOL    HW261069   5.445   8.886   1.165
19688SOL     OW61070   4.032   7.987   1.283
19688SOL    HW161071   4.104   7.950   1.337
19688SOL    HW261072   4.058   7.963   1.192
19689SOL     OW61073   4.547   9.028   0.679
19689SOL    HW161074   4.541   9.060   0.588
19689SOL    HW261075   4.458   8.991   0.692
19690SOL     OW61076   5.155   7.677   1.099
19690SOL    HW161077   5.199   7.607   1.148
19690SOL    HW261078   5.112   7.729   1.171
19691SOL     OW61079   4.746   7.452   1.148
19691SOL    HW161080   4.686   7.379   1.126
19691SOL    HW261081   4.834   7.410   1.144
19692SOL     OW61082   4.477   8.792   0.315
19692SOL    HW161083   4.463   8.697   0.330
19692SOL    HW261084   4.572   8.797   0.302
19693SOL     OW61085   4.325   9.007   1.273
19693SOL    HW161086   4.327   9.090   1.324
19693SOL    HW261087   4.417   9.003   1.245
19694SOL     OW61088   5.049   7.478   0.178
19694SOL    HW161089   5.071   7.443   0.091
19694SOL    HW261090   4.960   7.440   0.193
19695SOL     OW61091   5.033   7.924   0.705
19695SOL    HW161092   4.962   7.989   0.703
19695SOL    HW261093   5.017   7.876   0.789
19696SOL     OW61094   5.331   7.653   0.867
19696SOL    HW161095   5.256   7.672   0.925
19696SOL    HW261096   5.325   7.725   0.801
19697SOL     OW61097   3.775   8.538   0.276
19697SOL    HW161098   3.872   8.532   0.276
19697SOL    HW261099   3.750   8.447   0.300
19698SOL     OW61100   4.618   9.086   0.353
19698SOL    HW161101   4.541   9.074   0.294
19698SOL    HW261102   4.595   9.170   0.399
19699SOL     OW61103   3.960   8.087   1.994
19699SOL    HW161104   3.866   8.079   2.018
19699SOL    HW261105   3.962   8.066   1.900
19700SOL     OW61106   3.957   7.722   2.850
19700SOL    HW161107   3.975   7.707   2.945
19700SOL    HW261108   3.868   7.683   2.842
19701SOL     OW61109   3.726   7.856   2.484
19701SOL    HW161110   3.645   7.878   2.533
19701SOL    HW261111   3.706   7.767   2.454
19702SOL     OW61112   4.290   8.741   3.062
19702SOL    HW161113   4.202   8.735   3.023
19702SOL    HW261114   4.299   8.835   3.084
19703SOL     OW61115   5.283   8.969   2.584
19703SOL    HW161116   5.247   8.938   2.670
19703SOL    HW261117   5.219   8.934   2.520
19704SOL     OW61118   4.840   8.128   2.579
19704SOL    HW161119   4.890   8.212   2.577
19704SOL    HW261120   4.789   8.141   2.660
19705SOL     OW61121   5.500   8.048   2.096
19705SOL    HW161122   5.477   8.050   2.001
19705SOL    HW261123   5.440   7.980   2.130
19706SOL     OW61124   4.472   8.609   2.916
19706SOL    HW161125   4.402   8.654   2.968
19706SOL    HW261126   4.501   8.681   2.857
19707SOL     OW61127   4.600   8.206   3.660
19707SOL    HW161128   4.568   8.269   3.725
19707SOL    HW261129   4.616   8.262   3.581
19708SOL     OW61130   4.415   8.477   2.518
19708SOL    HW161131   4.480   8.451   2.586
19708SOL    HW261132   4.349   8.526   2.570
19709SOL     OW61133   4.413   8.600   3.669
19709SOL    HW161134   4.461   8.684   3.684
19709SOL    HW261135   4.327   8.631   3.636
19710SOL     OW61136   4.037   8.880   2.940
19710SOL    HW161137   3.975   8.823   2.891
19710SOL    HW261138   4.086   8.929   2.871
19711SOL     OW61139   5.193   8.942   3.235
19711SOL    HW161140   5.246   9.024   3.243
19711SOL    HW261141   5.124   8.954   3.302
19712SOL     OW61142   4.173   7.865   3.338
19712SOL    HW161143   4.256   7.820   3.360
19712SOL    HW261144   4.107   7.803   3.371
19713SOL     OW61145   5.349   7.890   2.603
19713SOL    HW161146   5.283   7.932   2.545
19713SOL    HW261147   5.361   7.959   2.668
19714SOL     OW61148   3.945   9.155   2.338
19714SOL    HW161149   3.967   9.236   2.390
19714SOL    HW261150   4.012   9.158   2.268
19715SOL     OW61151   4.845   8.791   3.522
19715SOL    HW161152   4.889   8.794   3.608
19715SOL    HW261153   4.805   8.702   3.526
19716SOL     OW61154   3.967   8.873   2.388
19716SOL    HW161155   3.969   8.970   2.396
19716SOL    HW261156   3.898   8.848   2.451
19717SOL     OW61157   3.997   8.529   2.763
19717SOL    HW161158   4.002   8.455   2.824
19717SOL    HW261159   3.942   8.592   2.812
19718SOL     OW61160   4.324   9.244   3.271
19718SOL    HW161161   4.252   9.216   3.330
19718SOL    HW261162   4.347   9.332   3.306
19719SOL     OW61163   4.292   8.443   1.978
19719SOL    HW161164   4.344   8.489   1.909
19719SOL    HW261165   4.338   8.473   2.059
19720SOL     OW61166   5.331   7.572   3.360
19720SOL    HW161167   5.328   7.653   3.307
19720SOL    HW261168   5.340   7.607   3.449
19721SOL     OW61169   3.834   8.106   2.428
19721SOL    HW161170   3.804   8.015   2.442
19721SOL    HW261171   3.833   8.143   2.518
19722SOL     OW61172   5.569   9.186   2.208
19722SOL    HW161173   5.643   9.172   2.270
19722SOL    HW261174   5.587   9.277   2.179
19723SOL     OW61175   3.786   9.052   1.988
19723SOL    HW161176   3.768   8.958   2.002
19723SOL    HW261177   3.751   9.093   2.069
19724SOL     OW61178   5.434   8.374   2.475
19724SOL    HW161179   5.483   8.330   2.404
19724SOL    HW261180   5.374   8.431   2.426
19725SOL     OW61181   5.361   8.572   2.289
19725SOL    HW161182   5.456   8.567   2.273
19725SOL    HW261183   5.356   8.641   2.358
19726SOL     OW61184   3.832   8.197   3.437
19726SOL    HW161185   3.916   8.215   3.482
19726SOL    HW261186   3.781   8.276   3.457
19727SOL     OW61187   4.312   8.865   2.618
19727SOL    HW161188   4.279   8.772   2.627
19727SOL    HW261189   4.305   8.876   2.521
19728SOL     OW61190   5.019   8.686   3.287
19728SOL    HW161191   5.042   8.611   3.229
19728SOL    HW261192   5.077   8.671   3.364
19729SOL     OW61193   4.555   7.450   2.351
19729SOL    HW161194   4.591   7.541   2.349
19729SOL    HW261195   4.459   7.467   2.360
19730SOL     OW61196   3.902   8.436   3.115
19730SOL    HW161197   3.992   8.400   3.114
19730SOL    HW261198   3.851   8.365   3.075
19731SOL     OW61199   5.275   8.408   2.038
19731SOL    HW161200   5.197   8.360   2.072
19731SOL    HW261201   5.305   8.455   2.118
19732SOL     OW61202   4.909   9.246   3.475
19732SOL    HW161203   4.910   9.307   3.400
19732SOL    HW261204   4.927   9.160   3.433
19733SOL     OW61205   5.190   8.872   2.821
19733SOL    HW161206   5.125   8.889   2.892
19733SOL    HW261207   5.163   8.781   2.793
19734SOL     OW61208   5.387   9.184   2.463
19734SOL    HW161209   5.373   9.148   2.374
19734SOL    HW261210   5.358   9.109   2.518
19735SOL     OW61211   4.323   8.159   2.126
19735SOL    HW161212   4.323   8.249   2.091
19735SOL    HW261213   4.251   8.162   2.192
19736SOL     OW61214   5.003   7.776   2.778
19736SOL    HW161215   4.913   7.746   2.800
19736SOL    HW261216   5.056   7.736   2.849
19737SOL     OW61217   5.302   9.096   2.169
19737SOL    HW161218   5.396   9.118   2.177
19737SOL    HW261219   5.294   9.086   2.072
19738SOL     OW61220   4.538   8.069   3.314
19738SOL    HW161221   4.513   8.032   3.402
19738SOL    HW261222   4.493   8.007   3.254
19739SOL     OW61223   5.120   7.928   3.536
19739SOL    HW161224   5.133   7.992   3.608
19739SOL    HW261225   5.181   7.856   3.561
19740SOL     OW61226   4.688   8.337   3.435
19740SOL    HW161227   4.729   8.255   3.399
19740SOL    HW261228   4.639   8.371   3.357
19741SOL     OW61229   4.696   7.857   3.089
19741SOL    HW161230   4.604   7.883   3.102
19741SOL    HW261231   4.691   7.800   3.011
19742SOL     OW61232   4.771   8.131   2.270
19742SOL    HW161233   4.785   8.154   2.363
19742SOL    HW261234   4.686   8.082   2.273
19743SOL     OW61235   3.827   8.256   2.664
19743SOL    HW161236   3.902   8.252   2.726
19743SOL    HW261237   3.790   8.343   2.684
19744SOL     OW61238   3.831   9.291   3.427
19744SOL    HW161239   3.845   9.272   3.522
19744SOL    HW261240   3.736   9.276   3.418
19745SOL     OW61241   4.603   7.819   2.068
19745SOL    HW161242   4.644   7.874   1.999
19745SOL    HW261243   4.626   7.731   2.036
19746SOL     OW61244   5.441   8.037   3.700
19746SOL    HW161245   5.405   8.113   3.650
19746SOL    HW261246   5.469   7.979   3.627
19747SOL     OW61247   5.109   8.692   2.422
19747SOL    HW161248   5.142   8.605   2.395
19747SOL    HW261249   5.044   8.710   2.353
19748SOL     OW61250   4.272   7.643   2.752
19748SOL    HW161251   4.277   7.653   2.850
19748SOL    HW261252   4.265   7.735   2.722
19749SOL     OW61253   4.704   8.892   2.360
19749SOL    HW161254   4.668   8.955   2.295
19749SOL    HW261255   4.717   8.946   2.439
19750SOL     OW61256   4.066   9.258   2.717
19750SOL    HW161257   4.113   9.174   2.736
19750SOL    HW261258   4.135   9.324   2.737
19751SOL     OW61259   5.544   8.495   2.712
19751SOL    HW161260   5.490   8.471   2.634
19751SOL    HW261261   5.481   8.485   2.784
19752SOL     OW61262   4.950   8.996   3.361
19752SOL    HW161263   4.921   8.929   3.425
19752SOL    HW261264   4.906   8.964   3.280
19753SOL     OW61265   4.027   8.404   2.122
19753SOL    HW161266   4.112   8.420   2.077
19753SOL    HW261267   3.998   8.321   2.081
19754SOL     OW61268   5.236   8.158   2.574
19754SOL    HW161269   5.181   8.158   2.654
19754SOL    HW261270   5.260   8.252   2.568
19755SOL     OW61271   4.189   8.723   3.584
19755SOL    HW161272   4.146   8.724   3.495
19755SOL    HW261273   4.110   8.729   3.641
19756SOL     OW61274   4.823   9.215   2.105
19756SOL    HW161275   4.754   9.163   2.150
19756SOL    HW261276   4.832   9.170   2.020
19757SOL     OW61277   3.892   7.736   3.365
19757SOL    HW161278   3.810   7.766   3.408
19757SOL    HW261279   3.939   7.695   3.441
19758SOL     OW61280   5.345   8.813   1.950
19758SOL    HW161281   5.303   8.897   1.926
19758SOL    HW261282   5.282   8.747   1.915
19759SOL     OW61283   4.178   9.190   2.181
19759SOL    HW161284   4.228   9.237   2.250
19759SOL    HW261285   4.249   9.155   2.125
19760SOL     OW61286   5.135   7.571   2.306
19760SOL    HW161287   5.137   7.519   2.224
19760SOL    HW261288   5.229   7.581   2.327
19761SOL     OW61289   3.974   9.246   3.091
19761SOL    HW161290   4.028   9.176   3.131
19761SOL    HW261291   3.961   9.214   3.001
19762SOL     OW61292   4.681   9.149   2.742
19762SOL    HW161293   4.764   9.099   2.742
19762SOL    HW261294   4.630   9.102   2.672
19763SOL     OW61295   4.115   8.145   2.327
19763SOL    HW161296   4.137   8.053   2.353
19763SOL    HW261297   4.019   8.145   2.342
19764SOL     OW61298   5.271   7.708   3.596
19764SOL    HW161299   5.260   7.712   3.694
19764SOL    HW261300   5.208   7.638   3.573
19765SOL     OW61301   4.360   7.576   1.948
19765SOL    HW161302   4.427   7.514   1.979
19765SOL    HW261303   4.310   7.522   1.883
19766SOL     OW61304   4.497   7.718   3.621
19766SOL    HW161305   4.571   7.654   3.626
19766SOL    HW261306   4.434   7.683   3.686
19767SOL     OW61307   4.612   8.985   3.061
19767SOL    HW161308   4.615   8.959   2.967
19767SOL    HW261309   4.678   8.925   3.101
19768SOL     OW61310   5.063   8.036   3.280
19768SOL    HW161311   5.100   8.009   3.366
19768SOL    HW261312   5.106   8.123   3.265
19769SOL     OW61313   4.536   8.846   2.785
19769SOL    HW161314   4.622   8.839   2.739
19769SOL    HW261315   4.472   8.855   2.712
19770SOL     OW61316   4.662   7.961   2.773
19770SOL    HW161317   4.641   7.955   2.677
19770SOL    HW261318   4.695   7.872   2.790
19771SOL     OW61319   4.289   7.497   2.365
19771SOL    HW161320   4.214   7.508   2.427
19771SOL    HW261321   4.275   7.574   2.305
19772SOL     OW61322   5.168   8.622   1.885
19772SOL    HW161323   5.196   8.546   1.940
19772SOL    HW261324   5.083   8.648   1.923
19773SOL     OW61325   4.003   7.488   2.050
19773SOL    HW161326   4.061   7.563   2.028
19773SOL    HW261327   4.067   7.426   2.091
19774SOL     OW61328   4.659   7.699   2.353
19774SOL    HW161329   4.638   7.748   2.272
19774SOL    HW261330   4.756   7.710   2.356
19775SOL     OW61331   4.817   8.115   3.343
19775SOL    HW161332   4.755   8.042   3.327
19775SOL    HW261333   4.904   8.078   3.320
19776SOL     OW61334   4.941   9.049   2.660
19776SOL    HW161335   4.952   9.098   2.577
19776SOL    HW261336   5.030   9.052   2.697
19777SOL     OW61337   4.199   8.621   2.608
19777SOL    HW161338   4.127   8.581   2.662
19777SOL    HW261339   4.169   8.597   2.517
19778SOL     OW61340   4.975   9.263   2.461
19778SOL    HW161341   5.025   9.329   2.408
19778SOL    HW261342   4.942   9.318   2.534
19779SOL     OW61343   4.784   7.978   1.890
19779SOL    HW161344   4.734   8.060   1.877
19779SOL    HW261345   4.852   8.001   1.955
19780SOL     OW61346   3.770   8.012   3.256
19780SOL    HW161347   3.864   7.990   3.242
19780SOL    HW261348   3.778   8.089   3.317
19781SOL     OW61349   4.292   7.665   3.019
19781SOL    HW161350   4.339   7.608   3.082
19781SOL    HW261351   4.202   7.664   3.055
19782SOL     OW61352   4.607   7.910   2.524
19782SOL    HW161353   4.562   7.960   2.454
19782SOL    HW261354   4.623   7.825   2.480
19783SOL     OW61355   4.772   7.504   2.636
19783SOL    HW161356   4.717   7.501   2.557
19783SOL    HW261357   4.743   7.424   2.685
19784SOL     OW61358   5.140   8.626   2.739
19784SOL    HW161359   5.089   8.542   2.735
19784SOL    HW261360   5.136   8.646   2.644
19785SOL     OW61361   5.175   8.032   2.861
19785SOL    HW161362   5.127   7.949   2.865
19785SOL    HW261363   5.251   8.020   2.920
19786SOL     OW61364   5.564   8.268   2.253
19786SOL    HW161365   5.621   8.211   2.309
19786SOL    HW261366   5.542   8.207   2.181
19787SOL     OW61367   4.214   8.876   1.987
19787SOL    HW161368   4.131   8.860   2.036
19787SOL    HW261369   4.203   8.821   1.909
19788SOL     OW61370   5.408   8.734   2.511
19788SOL    HW161371   5.505   8.741   2.515
19788SOL    HW261372   5.375   8.820   2.541
19789SOL     OW61373   5.122   8.041   1.927
19789SOL    HW161374   5.073   8.010   2.006
19789SOL    HW261375   5.214   8.027   1.954
19790SOL     OW61376   4.246   7.678   2.175
19790SOL    HW161377   4.292   7.650   2.094
19790SOL    HW261378   4.212   7.766   2.146
19791SOL     OW61379   5.453   8.684   3.428
19791SOL    HW161380   5.541   8.642   3.425
19791SOL    HW261381   5.478   8.776   3.449
19792SOL     OW61382   4.793   8.815   3.212
19792SOL    HW161383   4.720   8.771   3.257
19792SOL    HW261384   4.870   8.765   3.247
19793SOL     OW61385   5.330   9.062   3.498
19793SOL    HW161386   5.331   9.094   3.406
19793SOL    HW261387   5.409   9.006   3.500
19794SOL     OW61388   4.854   8.685   2.960
19794SOL    HW161389   4.775   8.682   3.016
19794SOL    HW261390   4.818   8.718   2.876
19795SOL     OW61391   5.326   8.546   2.936
19795SOL    HW161392   5.330   8.612   3.008
19795SOL    HW261393   5.262   8.587   2.876
19796SOL     OW61394   4.651   7.542   3.269
19796SOL    HW161395   4.677   7.525   3.177
19796SOL    HW261396   4.728   7.591   3.304
19797SOL     OW61397   4.728   8.560   3.598
19797SOL    HW161398   4.640   8.595   3.619
19797SOL    HW261399   4.709   8.488   3.534
19798SOL     OW61400   4.432   8.505   2.203
19798SOL    HW161401   4.426   8.491   2.299
19798SOL    HW261402   4.510   8.450   2.179
19799SOL     OW61403   4.145   8.263   3.132
19799SOL    HW161404   4.217   8.255   3.198
19799SOL    HW261405   4.100   8.177   3.139
19800SOL     OW61406   4.992   7.826   3.125
19800SOL    HW161407   5.017   7.906   3.176
19800SOL    HW261408   4.902   7.849   3.093
19801SOL     OW61409   3.803   9.017   3.204
19801SOL    HW161410   3.805   9.109   3.173
19801SOL    HW261411   3.898   8.993   3.202
19802SOL     OW61412   4.112   8.555   2.369
19802SOL    HW161413   4.113   8.618   2.297
19802SOL    HW261414   4.096   8.472   2.323
19803SOL     OW61415   4.257   7.998   2.699
19803SOL    HW161416   4.286   8.059   2.627
19803SOL    HW261417   4.328   8.013   2.764
19804SOL     OW61418   4.936   8.807   2.230
19804SOL    HW161419   4.983   8.878   2.277
19804SOL    HW261420   4.851   8.807   2.276
19805SOL     OW61421   5.019   8.920   3.031
19805SOL    HW161422   5.076   8.906   3.109
19805SOL    HW261423   4.957   8.845   3.036
19806SOL     OW61424   5.299   8.051   2.328
19806SOL    HW161425   5.260   8.095   2.406
19806SOL    HW261426   5.326   8.127   2.275
19807SOL     OW61427   4.064   8.965   3.181
19807SOL    HW161428   4.053   8.930   3.090
19807SOL    HW261429   4.159   8.987   3.178
19808SOL     OW61430   4.178   8.175   3.504
19808SOL    HW161431   4.225   8.212   3.427
19808SOL    HW261432   4.186   8.080   3.490
19809SOL     OW61433   5.333   8.220   3.543
19809SOL    HW161434   5.246   8.263   3.540
19809SOL    HW261435   5.377   8.262   3.466
19810SOL     OW61436   4.722   7.562   3.618
19810SOL    HW161437   4.767   7.639   3.581
19810SOL    HW261438   4.774   7.490   3.580
19811SOL     OW61439   4.256   7.452   3.608
19811SOL    HW161440   4.205   7.398   3.545
19811SOL    HW261441   4.197   7.531   3.610
19812SOL     OW61442   4.303   8.346   2.902
19812SOL    HW161443   4.344   8.433   2.910
19812SOL    HW261444   4.265   8.330   2.990
19813SOL     OW61445   5.060   8.282   2.934
19813SOL    HW161446   5.023   8.304   2.846
19813SOL    HW261447   5.105   8.199   2.914
19814SOL     OW61448   4.954   7.960   2.128
19814SOL    HW161449   4.957   7.886   2.191
19814SOL    HW261450   4.897   8.022   2.177
19815SOL     OW61451   4.014   7.661   3.110
19815SOL    HW161452   3.972   7.689   3.193
19815SOL    HW261453   3.992   7.566   3.110
19816SOL     OW61454   3.759   8.753   3.141
19816SOL    HW161455   3.786   8.696   3.215
19816SOL    HW261456   3.767   8.842   3.177
19817SOL     OW61457   4.437   8.090   2.895
19817SOL    HW161458   4.524   8.072   2.856
19817SOL    HW261459   4.421   8.184   2.877
19818SOL     OW61460   5.489   8.394   3.705
19818SOL    HW161461   5.448   8.337   3.639
19818SOL    HW261462   5.419   8.403   3.771
19819SOL     OW61463   4.036   7.521   2.467
19819SOL    HW161464   4.003   7.610   2.489
19819SOL    HW261465   4.037   7.478   2.555
19820SOL     OW61466   5.322   7.824   2.205
19820SOL    HW161467   5.351   7.758   2.270
19820SOL    HW261468   5.310   7.904   2.262
19821SOL     OW61469   4.747   8.202   2.836
19821SOL    HW161470   4.751   8.217   2.932
19821SOL    HW261471   4.735   8.105   2.831
19822SOL     OW61472   4.704   9.014   3.564
19822SOL    HW161473   4.690   9.067   3.482
19822SOL    HW261474   4.735   8.929   3.528
19823SOL     OW61475   5.570   8.941   3.469
19823SOL    HW161476   5.599   8.959   3.378
19823SOL    HW261477   5.649   8.966   3.520
19824SOL     OW61478   4.065   8.349   3.661
19824SOL    HW161479   4.143   8.372   3.713
19824SOL    HW261480   4.097   8.273   3.609
19825SOL     OW61481   5.226   7.705   1.991
19825SOL    HW161482   5.147   7.671   2.034
19825SOL    HW261483   5.271   7.751   2.065
19826SOL     OW61484   4.997   8.281   1.885
19826SOL    HW161485   5.041   8.196   1.905
19826SOL    HW261486   5.035   8.301   1.797
19827SOL     OW61487   4.787   8.817   2.702
19827SOL    HW161488   4.794   8.741   2.641
19827SOL    HW261489   4.858   8.876   2.675
19828SOL     OW61490   4.015   8.268   2.865
19828SOL    HW161491   4.110   8.282   2.852
19828SOL    HW261492   4.014   8.173   2.888
19829SOL     OW61493   4.040   7.986   2.860
19829SOL    HW161494   4.016   7.893   2.845
19829SOL    HW261495   4.111   7.998   2.794
19830SOL     OW61496   4.871   7.830   3.543
19830SOL    HW161497   4.825   7.881   3.612
19830SOL    HW261498   4.960   7.870   3.544
19831SOL     OW61499   4.894   7.654   3.340
19831SOL    HW161500   4.896   7.719   3.413
19831SOL    HW261501   4.933   7.705   3.267
19832SOL     OW61502   3.725   8.769   2.050
19832SOL    HW161503   3.633   8.781   2.019
19832SOL    HW261504   3.722   8.679   2.088
19833SOL     OW61505   3.820   9.226   2.811
19833SOL    HW161506   3.790   9.154   2.751
19833SOL    HW261507   3.912   9.241   2.778
19834SOL     OW61508   4.204   9.041   2.796
19834SOL    HW161509   4.273   9.109   2.810
19834SOL    HW261510   4.252   8.976   2.740
19835SOL     OW61511   4.700   8.222   3.110
19835SOL    HW161512   4.761   8.189   3.178
19835SOL    HW261513   4.616   8.186   3.140
19836SOL     OW61514   3.753   7.975   2.970
19836SOL    HW161515   3.836   7.967   2.920
19836SOL    HW261516   3.785   7.994   3.059
19837SOL     OW61517   3.943   7.984   3.598
19837SOL    HW161518   3.964   7.893   3.572
19837SOL    HW261519   3.881   8.014   3.531
19838SOL     OW61520   5.099   8.365   3.515
19838SOL    HW161521   5.119   8.460   3.515
19838SOL    HW261522   5.103   8.345   3.420
19839SOL     OW61523   4.529   8.013   2.249
19839SOL    HW161524   4.542   7.947   2.178
19839SOL    HW261525   4.456   8.066   2.214
19840SOL     OW61526   5.372   8.065   3.075
19840SOL    HW161527   5.344   7.993   3.133
19840SOL    HW261528   5.451   8.028   3.033
19841SOL     OW61529   3.975   8.984   3.579
19841SOL    HW161530   3.959   9.049   3.649
19841SOL    HW261531   3.982   8.901   3.630
19842SOL     OW61532   4.428   7.923   3.111
19842SOL    HW161533   4.360   7.858   3.091
19842SOL    HW261534   4.416   7.990   3.040
19843SOL     OW61535   4.648   9.144   3.337
19843SOL    HW161536   4.636   9.107   3.248
19843SOL    HW261537   4.642   9.240   3.320
19844SOL     OW61538   4.163   7.914   2.059
19844SOL    HW161539   4.230   7.984   2.061
19844SOL    HW261540   4.081   7.967   2.053
19845SOL     OW61541   3.833   8.582   3.330
19845SOL    HW161542   3.846   8.528   3.410
19845SOL    HW261543   3.854   8.519   3.258
19846SOL     OW61544   5.044   8.493   3.100
19846SOL    HW161545   5.055   8.423   3.032
19846SOL    HW261546   4.983   8.553   3.054
19847SOL     OW61547   5.037   8.304   2.155
19847SOL    HW161548   4.961   8.277   2.208
19847SOL    HW261549   5.002   8.305   2.064
19848SOL     OW61550   5.476   9.191   3.002
19848SOL    HW161551   5.549   9.210   2.939
19848SOL    HW261552   5.461   9.095   2.984
19849SOL     OW61553   4.966   9.181   2.976
19849SOL    HW161554   5.048   9.203   2.929
19849SOL    HW261555   4.977   9.085   2.990
19850SOL     OW61556   3.833   8.697   2.892
19850SOL    HW161557   3.800   8.714   2.984
19850SOL    HW261558   3.757   8.651   2.852
19851SOL     OW61559   4.419   9.094   3.598
19851SOL    HW161560   4.374   9.177   3.578
19851SOL    HW261561   4.506   9.106   3.556
19852SOL     OW61562   5.408   7.576   2.363
19852SOL    HW161563   5.486   7.567   2.306
19852SOL    HW261564   5.412   7.493   2.415
19853SOL     OW61565   5.082   9.035   2.336
19853SOL    HW161566   5.142   9.058   2.263
19853SOL    HW261567   5.043   9.121   2.361
19854SOL     OW61568   3.878   9.244   3.688
19854SOL    HW161569   3.835   9.174   3.742
19854SOL    HW261570   3.926   9.292   3.758
19855SOL     OW61571   4.521   8.706   3.292
19855SOL    HW161572   4.493   8.756   3.371
19855SOL    HW261573   4.448   8.724   3.231
19856SOL     OW61574   4.393   9.065   2.025
19856SOL    HW161575   4.411   9.076   1.930
19856SOL    HW261576   4.333   8.987   2.022
19857SOL     OW61577   5.344   9.167   3.252
19857SOL    HW161578   5.391   9.177   3.167
19857SOL    HW261579   5.345   9.258   3.287
19858SOL     OW61580   5.563   7.609   2.840
19858SOL    HW161581   5.584   7.523   2.800
19858SOL    HW261582   5.476   7.630   2.800
19859SOL     OW61583   3.979   7.768   2.563
19859SOL    HW161584   3.897   7.818   2.549
19859SOL    HW261585   3.986   7.764   2.659
19860SOL     OW61586   4.907   9.076   1.886
19860SOL    HW161587   4.920   8.981   1.900
19860SOL    HW261588   4.847   9.079   1.810
19861SOL     OW61589   4.545   8.447   3.237
19861SOL    HW161590   4.588   8.450   3.151
19861SOL    HW261591   4.538   8.541   3.261
19862SOL     OW61592   4.633   8.354   2.128
19862SOL    HW161593   4.710   8.399   2.088
19862SOL    HW261594   4.673   8.280   2.176
19863SOL     OW61595   5.271   9.080   1.895
19863SOL    HW161596   5.176   9.091   1.889
19863SOL    HW261597   5.297   9.078   1.800
19864SOL     OW61598   4.065   8.725   3.347
19864SOL    HW161599   4.060   8.795   3.281
19864SOL    HW261600   3.980   8.679   3.337
19865SOL     OW61601   5.330   8.743   3.133
19865SOL    HW161602   5.372   8.724   3.218
19865SOL    HW261603   5.264   8.809   3.161
19866SOL     OW61604   4.743   8.584   2.551
19866SOL    HW161605   4.691   8.519   2.600
19866SOL    HW261606   4.827   8.535   2.540
19867SOL     OW61607   4.755   7.677   2.850
19867SOL    HW161608   4.749   7.630   2.764
19867SOL    HW261609   4.754   7.602   2.912
19868SOL     OW61610   4.341   8.933   2.353
19868SOL    HW161611   4.391   8.885   2.285
19868SOL    HW261612   4.269   8.972   2.302
19869SOL     OW61613   5.428   7.821   3.247
19869SOL    HW161614   5.487   7.897   3.241
19869SOL    HW261615   5.472   7.757   3.187
19870SOL     OW61616   3.970   8.828   2.128
19870SOL    HW161617   3.874   8.816   2.116
19870SOL    HW261618   3.975   8.844   2.225
19871SOL     OW61619   3.847   8.469   3.568
19871SOL    HW161620   3.775   8.445   3.629
19871SOL    HW261621   3.926   8.429   3.610
19872SOL     OW61622   4.402   7.633   3.351
19872SOL    HW161623   4.491   7.601   3.325
19872SOL    HW261624   4.414   7.662   3.443
19873SOL     OW61625   3.820   7.786   1.874
19873SOL    HW161626   3.725   7.797   1.866
19873SOL    HW261627   3.854   7.864   1.826
19874SOL     OW61628   5.172   8.306   3.257
19874SOL    HW161629   5.119   8.360   3.195
19874SOL    HW261630   5.262   8.328   3.228
19875SOL     OW61631   3.769   7.609   2.156
19875SOL    HW161632   3.772   7.696   2.116
19875SOL    HW261633   3.852   7.569   2.123
19876SOL     OW61634   4.935   8.796   1.961
19876SOL    HW161635   4.854   8.745   1.974
19876SOL    HW261636   4.959   8.814   2.054
19877SOL     OW61637   4.342   8.254   3.302
19877SOL    HW161638   4.395   8.334   3.292
19877SOL    HW261639   4.412   8.187   3.311
19878SOL     OW61640   5.232   9.240   2.829
19878SOL    HW161641   5.269   9.258   2.742
19878SOL    HW261642   5.309   9.205   2.877
19879SOL     OW61643   4.451   7.982   3.545
19879SOL    HW161644   4.475   8.043   3.617
19879SOL    HW261645   4.452   7.894   3.588
19880SOL     OW61646   5.186   8.633   3.493
19880SOL    HW161647   5.180   8.634   3.591
19880SOL    HW261648   5.278   8.658   3.477
19881SOL     OW61649   4.095   9.185   3.425
19881SOL    HW161650   4.008   9.227   3.411
19881SOL    HW261651   4.069   9.099   3.463
19882SOL     OW61652   5.432   8.329   3.118
19882SOL    HW161653   5.410   8.239   3.087
19882SOL    HW261654   5.395   8.386   3.048
19883SOL     OW61655   4.924   7.760   2.329
19883SOL    HW161656   4.998   7.698   2.327
19883SOL    HW261657   4.949   7.817   2.406
19884SOL     OW61658   4.326   8.186   2.514
19884SOL    HW161659   4.360   8.277   2.508
19884SOL    HW261660   4.256   8.185   2.448
19885SOL     OW61661   5.492   7.830   3.509
19885SOL    HW161662   5.461   7.836   3.416
19885SOL    HW261663   5.417   7.782   3.550
19886SOL     OW61664   5.466   8.382   3.379
19886SOL    HW161665   5.455   8.478   3.375
19886SOL    HW261666   5.472   8.359   3.284
19887SOL     OW61667   4.573   8.807   1.899
19887SOL    HW161668   4.556   8.822   1.994
19887SOL    HW261669   4.602   8.893   1.866
19888SOL     OW61670   4.368   9.258   2.783
19888SOL    HW161671   4.362   9.354   2.766
19888SOL    HW261672   4.463   9.241   2.780
19889SOL     OW61673   4.592   8.396   2.706
19889SOL    HW161674   4.653   8.325   2.736
19889SOL    HW261675   4.588   8.452   2.784
19890SOL     OW61676   4.827   8.461   1.969
19890SOL    HW161677   4.792   8.504   1.890
19890SOL    HW261678   4.888   8.395   1.929
19891SOL     OW61679   5.563   9.016   2.707
19891SOL    HW161680   5.475   8.998   2.673
19891SOL    HW261681   5.587   8.932   2.749
19892SOL     OW61682   3.967   8.761   3.730
19892SOL    HW161683   3.900   8.695   3.709
19892SOL    HW261684   3.953   8.772   3.826
19893SOL     OW61685   3.811   8.689   2.526
19893SOL    HW161686   3.824   8.643   2.610
19893SOL    HW261687   3.884   8.655   2.474
19894SOL     OW61688   4.405   8.848   3.489
19894SOL    HW161689   4.325   8.798   3.516
19894SOL    HW261690   4.389   8.935   3.530
19895SOL     OW61691   5.547   7.627   3.098
19895SOL    HW161692   5.552   7.531   3.108
19895SOL    HW261693   5.557   7.635   3.001
19896SOL     OW61694   4.161   7.883   2.391
19896SOL    HW161695   4.200   7.807   2.345
19896SOL    HW261696   4.111   7.841   2.464
19897SOL     OW61697   5.421   8.939   2.960
19897SOL    HW161698   5.344   8.908   2.910
19897SOL    HW261699   5.426   8.870   3.027
19898SOL     OW61700   4.037   7.996   3.143
19898SOL    HW161701   4.093   7.950   3.209
19898SOL    HW261702   4.063   7.956   3.059
19899SOL     OW61703   4.540   9.045   2.538
19899SOL    HW161704   4.533   9.069   2.444
19899SOL    HW261705   4.460   8.991   2.550
19900SOL     OW61706   5.158   7.679   2.972
19900SOL    HW161707   5.187   7.601   3.021
19900SOL    HW261708   5.104   7.728   3.037
19901SOL     OW61709   4.742   7.456   3.014
19901SOL    HW161710   4.686   7.382   2.988
19901SOL    HW261711   4.831   7.414   3.012
19902SOL     OW61712   4.523   8.781   2.174
19902SOL    HW161713   4.490   8.690   2.176
19902SOL    HW261714   4.591   8.781   2.242
19903SOL     OW61715   4.325   9.007   3.127
19903SOL    HW161716   4.327   9.092   3.176
19903SOL    HW261717   4.419   9.000   3.104
19904SOL     OW61718   5.039   7.465   2.050
19904SOL    HW161719   5.036   7.412   1.971
19904SOL    HW261720   4.949   7.447   2.087
19905SOL     OW61721   4.990   7.909   2.535
19905SOL    HW161722   4.938   7.992   2.543
19905SOL    HW261723   4.992   7.877   2.627
19906SOL     OW61724   5.325   7.643   2.729
19906SOL    HW161725   5.252   7.660   2.792
19906SOL    HW261726   5.323   7.724   2.675
19907SOL     OW61727   3.771   8.523   2.169
19907SOL    HW161728   3.866   8.516   2.149
19907SOL    HW261729   3.751   8.429   2.191
19908SOL     OW61730   4.599   9.094   2.198
19908SOL    HW161731   4.524   9.081   2.137
19908SOL    HW261732   4.577   9.175   2.246
19909SOL     OW61733   3.973   8.089   3.857
19909SOL    HW161734   3.885   8.059   3.884
19909SOL    HW261735   3.978   8.060   3.764
19910SOL     OW61736   3.938   7.762   4.711
19910SOL    HW161737   3.963   7.723   4.797
19910SOL    HW261738   3.861   7.707   4.686
19911SOL     OW61739   3.730   7.862   4.354
19911SOL    HW161740   3.643   7.877   4.395
19911SOL    HW261741   3.720   7.773   4.319
19912SOL     OW61742   4.294   8.740   4.914
19912SOL    HW161743   4.202   8.730   4.886
19912SOL    HW261744   4.296   8.834   4.940
19913SOL     OW61745   5.268   8.981   4.437
19913SOL    HW161746   5.228   8.951   4.521
19913SOL    HW261747   5.196   8.973   4.371
19914SOL     OW61748   4.846   8.135   4.430
19914SOL    HW161749   4.885   8.221   4.409
19914SOL    HW261750   4.809   8.150   4.518
19915SOL     OW61751   5.491   8.051   3.958
19915SOL    HW161752   5.481   8.050   3.860
19915SOL    HW261753   5.452   7.966   3.982
19916SOL     OW61754   4.478   8.620   4.758
19916SOL    HW161755   4.411   8.662   4.815
19916SOL    HW261756   4.506   8.696   4.704
19917SOL     OW61757   4.581   8.213   5.535
19917SOL    HW161758   4.575   8.279   5.605
19917SOL    HW261759   4.612   8.264   5.458
19918SOL     OW61760   4.410   8.471   4.376
19918SOL    HW161761   4.477   8.459   4.446
19918SOL    HW261762   4.340   8.522   4.422
19919SOL     OW61763   4.428   8.608   5.535
19919SOL    HW161764   4.470   8.690   5.569
19919SOL    HW261765   4.345   8.641   5.497
19920SOL     OW61766   4.041   8.871   4.793
19920SOL    HW161767   3.973   8.823   4.745
19920SOL    HW261768   4.088   8.923   4.725
19921SOL     OW61769   5.191   8.948   5.101
19921SOL    HW161770   5.247   9.028   5.110
19921SOL    HW261771   5.125   8.961   5.171
19922SOL     OW61772   4.161   7.844   5.179
19922SOL    HW161773   4.253   7.815   5.180
19922SOL    HW261774   4.124   7.806   5.259
19923SOL     OW61775   5.363   7.901   4.474
19923SOL    HW161776   5.295   7.934   4.414
19923SOL    HW261777   5.338   7.946   4.556
19924SOL     OW61778   3.946   9.161   4.197
19924SOL    HW161779   3.977   9.239   4.248
19924SOL    HW261780   4.007   9.163   4.121
19925SOL     OW61781   4.845   8.800   5.379
19925SOL    HW161782   4.888   8.804   5.465
19925SOL    HW261783   4.807   8.710   5.383
19926SOL     OW61784   3.974   8.879   4.254
19926SOL    HW161785   3.969   8.976   4.260
19926SOL    HW261786   3.904   8.850   4.315
19927SOL     OW61787   3.997   8.544   4.629
19927SOL    HW161788   3.999   8.462   4.680
19927SOL    HW261789   3.934   8.599   4.680
19928SOL     OW61790   4.306   9.248   5.120
19928SOL    HW161791   4.241   9.214   5.184
19928SOL    HW261792   4.336   9.331   5.162
19929SOL     OW61793   4.294   8.435   3.851
19929SOL    HW161794   4.341   8.483   3.780
19929SOL    HW261795   4.339   8.471   3.930
19930SOL     OW61796   5.340   7.580   5.209
19930SOL    HW161797   5.312   7.666   5.177
19930SOL    HW261798   5.326   7.586   5.304
19931SOL     OW61799   3.842   8.097   4.282
19931SOL    HW161800   3.808   8.009   4.306
19931SOL    HW261801   3.833   8.147   4.365
19932SOL     OW61802   5.569   9.176   4.069
19932SOL    HW161803   5.641   9.162   4.135
19932SOL    HW261804   5.581   9.270   4.050
19933SOL     OW61805   3.789   9.045   3.842
19933SOL    HW161806   3.771   8.951   3.857
19933SOL    HW261807   3.757   9.085   3.925
19934SOL     OW61808   5.401   8.337   4.366
19934SOL    HW161809   5.491   8.317   4.338
19934SOL    HW261810   5.375   8.404   4.300
19935SOL     OW61811   5.368   8.557   4.181
19935SOL    HW161812   5.456   8.560   4.140
19935SOL    HW261813   5.374   8.631   4.246
19936SOL     OW61814   3.823   8.190   5.301
19936SOL    HW161815   3.910   8.229   5.319
19936SOL    HW261816   3.765   8.268   5.289
19937SOL     OW61817   4.307   8.855   4.485
19937SOL    HW161818   4.272   8.764   4.495
19937SOL    HW261819   4.303   8.865   4.388
19938SOL     OW61820   5.006   8.678   5.145
19938SOL    HW161821   5.038   8.608   5.085
19938SOL    HW261822   5.059   8.663   5.225
19939SOL     OW61823   4.556   7.428   4.236
19939SOL    HW161824   4.582   7.522   4.239
19939SOL    HW261825   4.460   7.436   4.250
19940SOL     OW61826   3.913   8.434   4.975
19940SOL    HW161827   4.000   8.398   4.950
19940SOL    HW261828   3.850   8.373   4.934
19941SOL     OW61829   5.275   8.391   3.910
19941SOL    HW161830   5.200   8.340   3.944
19941SOL    HW261831   5.309   8.434   3.990
19942SOL     OW61832   4.896   9.249   5.340
19942SOL    HW161833   4.907   9.314   5.268
19942SOL    HW261834   4.920   9.165   5.296
19943SOL     OW61835   5.192   8.871   4.683
19943SOL    HW161836   5.131   8.890   4.757
19943SOL    HW261837   5.165   8.781   4.657
19944SOL     OW61838   5.386   9.184   4.310
19944SOL    HW161839   5.370   9.143   4.223
19944SOL    HW261840   5.352   9.115   4.370
19945SOL     OW61841   4.313   8.163   3.984
19945SOL    HW161842   4.303   8.253   3.949
19945SOL    HW261843   4.240   8.156   4.049
19946SOL     OW61844   4.991   7.772   4.626
19946SOL    HW161845   4.903   7.743   4.656
19946SOL    HW261846   5.047   7.746   4.702
19947SOL     OW61847   5.304   9.093   4.029
19947SOL    HW161848   5.400   9.111   4.037
19947SOL    HW261849   5.296   9.090   3.932
19948SOL     OW61850   4.520   8.069   5.194
19948SOL    HW161851   4.507   8.023   5.280
19948SOL    HW261852   4.474   8.009   5.132
19949SOL     OW61853   5.140   7.919   5.392
19949SOL    HW161854   5.138   7.966   5.478
19949SOL    HW261855   5.181   7.834   5.415
19950SOL     OW61856   4.680   8.337   5.312
19950SOL    HW161857   4.720   8.257   5.271
19950SOL    HW261858   4.636   8.378   5.234
19951SOL     OW61859   4.676   7.866   4.953
19951SOL    HW161860   4.613   7.842   5.022
19951SOL    HW261861   4.691   7.781   4.909
19952SOL     OW61862   4.760   8.119   4.151
19952SOL    HW161863   4.762   8.147   4.245
19952SOL    HW261864   4.668   8.085   4.143
19953SOL     OW61865   3.837   8.280   4.502
19953SOL    HW161866   3.909   8.272   4.567
19953SOL    HW261867   3.787   8.356   4.535
19954SOL     OW61868   3.833   9.294   5.295
19954SOL    HW161869   3.836   9.272   5.390
19954SOL    HW261870   3.738   9.294   5.277
19955SOL     OW61871   4.594   7.801   3.948
19955SOL    HW161872   4.619   7.854   3.871
19955SOL    HW261873   4.577   7.715   3.907
19956SOL     OW61874   5.467   8.045   5.557
19956SOL    HW161875   5.412   8.113   5.512
19956SOL    HW261876   5.484   7.983   5.484
19957SOL     OW61877   5.082   8.591   4.283
19957SOL    HW161878   5.166   8.584   4.236
19957SOL    HW261879   5.036   8.658   4.229
19958SOL     OW61880   4.286   7.650   4.615
19958SOL    HW161881   4.287   7.660   4.712
19958SOL    HW261882   4.274   7.741   4.585
19959SOL     OW61883   4.712   8.893   4.216
19959SOL    HW161884   4.681   8.960   4.153
19959SOL    HW261885   4.716   8.942   4.299
19960SOL     OW61886   4.066   9.261   4.582
19960SOL    HW161887   4.108   9.175   4.602
19960SOL    HW261888   4.140   9.322   4.595
19961SOL     OW61889   5.537   8.483   4.606
19961SOL    HW161890   5.476   8.479   4.531
19961SOL    HW261891   5.477   8.481   4.683
19962SOL     OW61892   4.948   9.011   5.222
19962SOL    HW161893   4.921   8.943   5.286
19962SOL    HW261894   4.904   8.978   5.142
19963SOL     OW61895   4.025   8.409   3.981
19963SOL    HW161896   4.109   8.427   3.937
19963SOL    HW261897   4.002   8.322   3.944
19964SOL     OW61898   5.188   8.193   4.449
19964SOL    HW161899   5.189   8.157   4.539
19964SOL    HW261900   5.272   8.244   4.445
19965SOL     OW61901   4.184   8.719   5.451
19965SOL    HW161902   4.149   8.723   5.360
19965SOL    HW261903   4.101   8.726   5.502
19966SOL     OW61904   4.826   9.215   3.969
19966SOL    HW161905   4.753   9.166   4.011
19966SOL    HW261906   4.835   9.170   3.883
19967SOL     OW61907   5.347   8.807   3.821
19967SOL    HW161908   5.306   8.891   3.795
19967SOL    HW261909   5.288   8.741   3.782
19968SOL     OW61910   4.182   9.189   4.043
19968SOL    HW161911   4.231   9.238   4.113
19968SOL    HW261912   4.254   9.156   3.986
19969SOL     OW61913   5.114   7.592   4.169
19969SOL    HW161914   5.106   7.535   4.091
19969SOL    HW261915   5.209   7.588   4.186
19970SOL     OW61916   3.972   9.247   4.951
19970SOL    HW161917   4.023   9.173   4.988
19970SOL    HW261918   3.952   9.217   4.862
19971SOL     OW61919   4.688   9.155   4.606
19971SOL    HW161920   4.766   9.101   4.623
19971SOL    HW261921   4.638   9.101   4.541
19972SOL     OW61922   4.111   8.127   4.174
19972SOL    HW161923   4.132   8.035   4.202
19972SOL    HW261924   4.016   8.131   4.194
19973SOL     OW61925   5.264   7.684   5.458
19973SOL    HW161926   5.260   7.698   5.555
19973SOL    HW261927   5.208   7.605   5.450
19974SOL     OW61928   4.360   7.574   3.824
19974SOL    HW161929   4.423   7.506   3.851
19974SOL    HW261930   4.307   7.526   3.757
19975SOL     OW61931   4.607   8.986   4.927
19975SOL    HW161932   4.606   8.957   4.834
19975SOL    HW261933   4.671   8.926   4.969
19976SOL     OW61934   5.055   8.045   5.156
19976SOL    HW161935   5.100   8.008   5.234
19976SOL    HW261936   5.105   8.126   5.137
19977SOL     OW61937   4.537   8.870   4.646
19977SOL    HW161938   4.620   8.847   4.601
19977SOL    HW261939   4.471   8.868   4.574
19978SOL     OW61940   4.666   7.987   4.633
19978SOL    HW161941   4.641   7.968   4.539
19978SOL    HW261942   4.667   7.898   4.671
19979SOL     OW61943   4.288   7.489   4.229
19979SOL    HW161944   4.210   7.497   4.287
19979SOL    HW261945   4.279   7.570   4.174
19980SOL     OW61946   5.167   8.607   3.756
19980SOL    HW161947   5.192   8.534   3.815
19980SOL    HW261948   5.083   8.639   3.792
19981SOL     OW61949   3.997   7.510   3.908
19981SOL    HW161950   4.039   7.572   3.846
19981SOL    HW261951   4.074   7.466   3.948
19982SOL     OW61952   4.645   7.688   4.231
19982SOL    HW161953   4.617   7.729   4.148
19982SOL    HW261954   4.741   7.701   4.228
19983SOL     OW61955   4.799   8.132   5.195
19983SOL    HW161956   4.739   8.057   5.206
19983SOL    HW261957   4.887   8.091   5.201
19984SOL     OW61958   4.950   9.031   4.516
19984SOL    HW161959   4.954   9.084   4.435
19984SOL    HW261960   5.028   9.060   4.563
19985SOL     OW61961   4.199   8.606   4.463
19985SOL    HW161962   4.125   8.577   4.521
19985SOL    HW261963   4.161   8.590   4.374
19986SOL     OW61964   4.992   9.252   4.326
19986SOL    HW161965   5.040   9.324   4.281
19986SOL    HW261966   4.940   9.302   4.391
19987SOL     OW61967   4.784   8.026   3.733
19987SOL    HW161968   4.709   8.081   3.704
19987SOL    HW261969   4.856   8.090   3.730
19988SOL     OW61970   3.784   8.005   5.103
19988SOL    HW161971   3.879   8.007   5.081
19988SOL    HW261972   3.781   8.066   5.179
19989SOL     OW61973   4.291   7.678   4.893
19989SOL    HW161974   4.340   7.612   4.945
19989SOL    HW261975   4.205   7.679   4.937
19990SOL     OW61976   4.601   7.914   4.388
19990SOL    HW161977   4.533   7.950   4.330
19990SOL    HW261978   4.608   7.822   4.358
19991SOL     OW61979   4.758   7.519   4.486
19991SOL    HW161980   4.702   7.500   4.410
19991SOL    HW261981   4.748   7.436   4.538
19992SOL     OW61982   5.136   8.623   4.609
19992SOL    HW161983   5.089   8.542   4.633
19992SOL    HW261984   5.127   8.623   4.513
19993SOL     OW61985   5.223   8.015   4.693
19993SOL    HW161986   5.156   7.948   4.714
19993SOL    HW261987   5.271   8.023   4.777
19994SOL     OW61988   5.568   8.264   4.113
19994SOL    HW161989   5.622   8.211   4.175
19994SOL    HW261990   5.553   8.200   4.042
19995SOL     OW61991   4.216   8.872   3.854
19995SOL    HW161992   4.134   8.862   3.905
19995SOL    HW261993   4.202   8.813   3.779
19996SOL     OW61994   5.397   8.740   4.380
19996SOL    HW161995   5.494   8.743   4.384
19996SOL    HW261996   5.370   8.829   4.408
19997SOL     OW61997   5.157   8.059   3.783
19997SOL    HW161998   5.147   8.006   3.863
19997SOL    HW261999   5.254   8.064   3.777
19998SOL     OW62000   4.253   7.687   4.045
19998SOL    HW162001   4.289   7.649   3.963
19998SOL    HW262002   4.217   7.772   4.011
19999SOL     OW62003   5.456   8.681   5.302
19999SOL    HW162004   5.545   8.644   5.313
19999SOL    HW262005   5.476   8.776   5.312
20000SOL     OW62006   4.792   8.831   5.075
20000SOL    HW162007   4.715   8.789   5.117
20000SOL    HW262008   4.865   8.774   5.108
20001SOL     OW62009   5.338   9.056   5.362
20001SOL    HW162010   5.338   9.096   5.273
20001SOL    HW262011   5.422   9.006   5.362
20002SOL     OW62012   4.850   8.690   4.825
20002SOL    HW162013   4.776   8.690   4.886
20002SOL    HW262014   4.813   8.729   4.744
20003SOL     OW62015   5.319   8.543   4.802
20003SOL    HW162016   5.332   8.609   4.872
20003SOL    HW262017   5.261   8.592   4.740
20004SOL     OW62018   4.635   7.597   5.083
20004SOL    HW162019   4.660   7.515   5.038
20004SOL    HW262020   4.703   7.600   5.152
20005SOL     OW62021   4.726   8.563   5.455
20005SOL    HW162022   4.634   8.582   5.481
20005SOL    HW262023   4.715   8.480   5.404
20006SOL     OW62024   4.439   8.509   4.071
20006SOL    HW162025   4.422   8.480   4.162
20006SOL    HW262026   4.516   8.454   4.046
20007SOL     OW62027   4.158   8.265   4.968
20007SOL    HW162028   4.220   8.269   5.044
20007SOL    HW262029   4.119   8.176   4.979
20008SOL     OW62030   4.993   7.856   4.980
20008SOL    HW162031   5.011   7.923   5.049
20008SOL    HW262032   4.897   7.860   4.968
20009SOL     OW62033   3.797   9.019   5.054
20009SOL    HW162034   3.795   9.111   5.025
20009SOL    HW262035   3.893   9.000   5.051
20010SOL     OW62036   4.092   8.553   4.225
20010SOL    HW162037   4.124   8.614   4.158
20010SOL    HW262038   4.058   8.480   4.171
20011SOL     OW62039   4.264   7.982   4.565
20011SOL    HW162040   4.292   8.049   4.500
20011SOL    HW262041   4.320   8.005   4.642
20012SOL     OW62042   4.950   8.786   4.111
20012SOL    HW162043   4.993   8.863   4.153
20012SOL    HW262044   4.858   8.797   4.141
20013SOL     OW62045   5.022   8.912   4.892
20013SOL    HW162046   5.077   8.909   4.973
20013SOL    HW262047   4.961   8.838   4.904
20014SOL     OW62048   5.287   8.058   4.184
20014SOL    HW162049   5.258   8.117   4.255
20014SOL    HW262050   5.348   8.113   4.133
20015SOL     OW62051   4.060   8.964   5.033
20015SOL    HW162052   4.048   8.925   4.943
20015SOL    HW262053   4.155   8.982   5.030
20016SOL     OW62054   4.148   8.194   5.336
20016SOL    HW162055   4.214   8.228   5.273
20016SOL    HW262056   4.167   8.100   5.338
20017SOL     OW62057   5.347   8.226   5.411
20017SOL    HW162058   5.257   8.263   5.405
20017SOL    HW262059   5.391   8.271   5.336
20018SOL     OW62060   4.346   8.342   4.780
20018SOL    HW162061   4.356   8.438   4.776
20018SOL    HW262062   4.269   8.331   4.840
20019SOL     OW62063   5.072   8.296   4.751
20019SOL    HW162064   4.985   8.264   4.723
20019SOL    HW262065   5.117   8.215   4.776
20020SOL     OW62066   4.012   7.664   4.954
20020SOL    HW162067   3.965   7.674   5.039
20020SOL    HW262068   4.014   7.568   4.941
20021SOL     OW62069   3.773   8.743   5.013
20021SOL    HW162070   3.787   8.693   5.095
20021SOL    HW262071   3.768   8.835   5.043
20022SOL     OW62072   4.432   8.079   4.755
20022SOL    HW162073   4.523   8.074   4.719
20022SOL    HW262074   4.416   8.175   4.765
20023SOL     OW62075   5.481   8.398   5.574
20023SOL    HW162076   5.435   8.332   5.520
20023SOL    HW262077   5.421   8.406   5.649
20024SOL     OW62078   4.036   7.509   4.336
20024SOL    HW162079   4.000   7.596   4.360
20024SOL    HW262080   4.041   7.465   4.423
20025SOL     OW62081   5.317   7.823   4.068
20025SOL    HW162082   5.351   7.754   4.127
20025SOL    HW262083   5.310   7.901   4.128
20026SOL     OW62084   4.801   8.203   4.706
20026SOL    HW162085   4.768   8.215   4.798
20026SOL    HW262086   4.761   8.117   4.685
20027SOL     OW62087   4.701   9.021   5.426
20027SOL    HW162088   4.684   9.067   5.342
20027SOL    HW262089   4.734   8.934   5.396
20028SOL     OW62090   5.577   8.938   5.326
20028SOL    HW162091   5.599   8.967   5.235
20028SOL    HW262092   5.657   8.966   5.375
20029SOL     OW62093   4.064   8.361   5.521
20029SOL    HW162094   4.152   8.373   5.561
20029SOL    HW262095   4.085   8.294   5.452
20030SOL     OW62096   5.225   7.701   3.851
20030SOL    HW162097   5.161   7.631   3.877
20030SOL    HW262098   5.264   7.729   3.937
20031SOL     OW62099   5.004   8.273   3.744
20031SOL    HW162100   5.067   8.199   3.752
20031SOL    HW262101   5.033   8.312   3.658
20032SOL     OW62102   4.786   8.810   4.571
20032SOL    HW162103   4.802   8.734   4.511
20032SOL    HW262104   4.857   8.872   4.548
20033SOL     OW62105   4.035   8.268   4.698
20033SOL    HW162106   4.131   8.259   4.685
20033SOL    HW262107   4.012   8.177   4.724
20034SOL     OW62108   4.047   7.998   4.717
20034SOL    HW162109   4.011   7.907   4.712
20034SOL    HW262110   4.118   7.994   4.650
20035SOL     OW62111   4.871   7.867   5.388
20035SOL    HW162112   4.827   7.896   5.471
20035SOL    HW262113   4.964   7.870   5.413
20036SOL     OW62114   4.875   7.662   5.203
20036SOL    HW162115   4.863   7.724   5.278
20036SOL    HW262116   4.945   7.702   5.152
20037SOL     OW62117   3.726   8.766   3.912
20037SOL    HW162118   3.633   8.782   3.881
20037SOL    HW262119   3.720   8.677   3.951
20038SOL     OW62120   3.821   9.230   4.672
20038SOL    HW162121   3.793   9.151   4.621
20038SOL    HW262122   3.911   9.247   4.635
20039SOL     OW62123   4.202   9.040   4.651
20039SOL    HW162124   4.273   9.105   4.667
20039SOL    HW262125   4.248   8.974   4.597
20040SOL     OW62126   4.684   8.217   4.956
20040SOL    HW162127   4.744   8.188   5.028
20040SOL    HW262128   4.603   8.172   4.982
20041SOL     OW62129   3.734   7.970   4.831
20041SOL    HW162130   3.809   7.948   4.774
20041SOL    HW262131   3.775   7.978   4.918
20042SOL     OW62132   3.948   7.964   5.426
20042SOL    HW162133   3.908   7.877   5.411
20042SOL    HW262134   3.888   8.024   5.379
20043SOL     OW62135   5.118   8.371   5.370
20043SOL    HW162136   5.148   8.465   5.371
20043SOL    HW262137   5.111   8.352   5.275
20044SOL     OW62138   4.521   8.027   4.097
20044SOL    HW162139   4.527   7.951   4.036
20044SOL    HW262140   4.445   8.076   4.061
20045SOL     OW62141   5.358   8.068   4.931
20045SOL    HW162142   5.336   8.002   4.998
20045SOL    HW262143   5.444   8.035   4.897
20046SOL     OW62144   3.975   8.995   5.451
20046SOL    HW162145   3.951   9.056   5.522
20046SOL    HW262146   3.974   8.909   5.497
20047SOL     OW62147   4.385   7.945   4.992
20047SOL    HW162148   4.358   7.857   4.962
20047SOL    HW262149   4.401   7.991   4.908
20048SOL     OW62150   4.638   9.141   5.196
20048SOL    HW162151   4.630   9.103   5.108
20048SOL    HW262152   4.637   9.237   5.180
20049SOL     OW62153   4.176   7.920   3.935
20049SOL    HW162154   4.239   7.993   3.927
20049SOL    HW262155   4.092   7.967   3.921
20050SOL     OW62156   3.884   8.565   5.204
20050SOL    HW162157   3.859   8.506   5.278
20050SOL    HW262158   3.887   8.505   5.126
20051SOL     OW62159   5.037   8.499   4.944
20051SOL    HW162160   5.053   8.434   4.873
20051SOL    HW262161   4.978   8.563   4.901
20052SOL     OW62162   5.032   8.272   4.015
20052SOL    HW162163   4.952   8.301   4.060
20052SOL    HW262164   5.013   8.294   3.921
20053SOL     OW62165   5.470   9.193   4.850
20053SOL    HW162166   5.547   9.216   4.795
20053SOL    HW262167   5.465   9.096   4.834
20054SOL     OW62168   4.963   9.172   4.835
20054SOL    HW162169   5.053   9.193   4.808
20054SOL    HW262170   4.970   9.076   4.853
20055SOL     OW62171   3.821   8.695   4.756
20055SOL    HW162172   3.803   8.706   4.852
20055SOL    HW262173   3.741   8.650   4.726
20056SOL     OW62174   4.415   9.087   5.475
20056SOL    HW162175   4.378   9.171   5.445
20056SOL    HW262176   4.503   9.086   5.433
20057SOL     OW62177   5.401   7.591   4.213
20057SOL    HW162178   5.481   7.575   4.160
20057SOL    HW262179   5.398   7.509   4.267
20058SOL     OW62180   5.089   9.018   4.208
20058SOL    HW162181   5.149   9.033   4.133
20058SOL    HW262182   5.051   9.106   4.222
20059SOL     OW62183   3.857   9.240   5.565
20059SOL    HW162184   3.815   9.171   5.620
20059SOL    HW262185   3.898   9.295   5.633
20060SOL     OW62186   4.979   8.358   4.379
20060SOL    HW162187   5.059   8.309   4.408
20060SOL    HW262188   5.017   8.441   4.345
20061SOL     OW62189   4.536   8.724   5.152
20061SOL    HW162190   4.504   8.764   5.236
20061SOL    HW262191   4.458   8.735   5.095
20062SOL     OW62192   4.385   9.078   3.877
20062SOL    HW162193   4.404   9.084   3.782
20062SOL    HW262194   4.326   8.999   3.878
20063SOL     OW62195   5.344   9.164   5.112
20063SOL    HW162196   5.390   9.178   5.027
20063SOL    HW262197   5.333   9.255   5.144
20064SOL     OW62198   5.570   7.611   4.701
20064SOL    HW162199   5.593   7.519   4.677
20064SOL    HW262200   5.480   7.622   4.665
20065SOL     OW62201   3.966   7.760   4.431
20065SOL    HW162202   3.888   7.813   4.409
20065SOL    HW262203   3.970   7.766   4.528
20066SOL     OW62204   4.910   9.079   3.747
20066SOL    HW162205   4.916   8.984   3.764
20066SOL    HW262206   4.853   9.083   3.668
20067SOL     OW62207   4.541   8.454   5.113
20067SOL    HW162208   4.568   8.449   5.020
20067SOL    HW262209   4.541   8.550   5.131
20068SOL     OW62210   4.641   8.360   4.002
20068SOL    HW162211   4.712   8.393   3.943
20068SOL    HW262212   4.675   8.275   4.034
20069SOL     OW62213   5.286   9.081   3.760
20069SOL    HW162214   5.189   9.086   3.758
20069SOL    HW262215   5.308   9.083   3.665
20070SOL     OW62216   4.090   8.730   5.205
20070SOL    HW162217   4.069   8.800   5.141
20070SOL    HW262218   4.014   8.670   5.197
20071SOL     OW62219   5.330   8.758   4.989
20071SOL    HW162220   5.373   8.726   5.070
20071SOL    HW262221   5.270   8.826   5.025
20072SOL     OW62222   4.779   8.564   4.446
20072SOL    HW162223   4.709   8.512   4.490
20072SOL    HW262224   4.833   8.494   4.406
20073SOL     OW62225   4.746   7.668   4.717
20073SOL    HW162226   4.743   7.628   4.628
20073SOL    HW262227   4.740   7.589   4.774
20074SOL     OW62228   4.343   8.933   4.219
20074SOL    HW162229   4.390   8.895   4.143
20074SOL    HW262230   4.265   8.973   4.178
20075SOL     OW62231   5.438   7.827   5.097
20075SOL    HW162232   5.515   7.887   5.093
20075SOL    HW262233   5.474   7.745   5.056
20076SOL     OW62234   3.968   8.821   3.996
20076SOL    HW162235   3.873   8.801   3.984
20076SOL    HW262236   3.973   8.839   4.092
20077SOL     OW62237   3.825   8.471   5.458
20077SOL    HW162238   3.764   8.407   5.495
20077SOL    HW262239   3.912   8.441   5.491
20078SOL     OW62240   4.416   7.708   5.196
20078SOL    HW162241   4.491   7.671   5.146
20078SOL    HW262242   4.435   7.674   5.285
20079SOL     OW62243   3.791   7.839   3.829
20079SOL    HW162244   3.735   7.813   3.756
20079SOL    HW262245   3.879   7.830   3.789
20080SOL     OW62246   5.172   8.303   5.108
20080SOL    HW162247   5.130   8.368   5.049
20080SOL    HW262248   5.266   8.319   5.092
20081SOL     OW62249   3.769   7.624   4.027
20081SOL    HW162250   3.760   7.709   3.980
20081SOL    HW262251   3.852   7.591   3.988
20082SOL     OW62252   4.926   8.809   3.835
20082SOL    HW162253   4.834   8.777   3.839
20082SOL    HW262254   4.951   8.809   3.929
20083SOL     OW62255   4.347   8.271   5.161
20083SOL    HW162256   4.410   8.345   5.156
20083SOL    HW262257   4.410   8.196   5.176
20084SOL     OW62258   5.225   9.208   4.689
20084SOL    HW162259   5.263   9.245   4.609
20084SOL    HW262260   5.302   9.197   4.747
20085SOL     OW62261   4.476   7.978   5.441
20085SOL    HW162262   4.492   8.065   5.483
20085SOL    HW262263   4.484   7.918   5.515
20086SOL     OW62264   5.185   8.630   5.352
20086SOL    HW162265   5.176   8.636   5.449
20086SOL    HW262266   5.279   8.651   5.338
20087SOL     OW62267   4.093   9.181   5.292
20087SOL    HW162268   4.009   9.227   5.272
20087SOL    HW262269   4.061   9.100   5.337
20088SOL     OW62270   5.418   8.338   4.965
20088SOL    HW162271   5.400   8.248   4.932
20088SOL    HW262272   5.381   8.396   4.895
20089SOL     OW62273   4.926   7.780   4.190
20089SOL    HW162274   4.988   7.705   4.186
20089SOL    HW262275   4.947   7.818   4.279
20090SOL     OW62276   4.312   8.199   4.383
20090SOL    HW162277   4.341   8.292   4.384
20090SOL    HW262278   4.245   8.197   4.313
20091SOL     OW62279   5.494   7.831   5.361
20091SOL    HW162280   5.466   7.835   5.268
20091SOL    HW262281   5.422   7.778   5.399
20092SOL     OW62282   5.456   8.396   5.228
20092SOL    HW162283   5.471   8.491   5.232
20092SOL    HW262284   5.465   8.377   5.133
20093SOL     OW62285   4.605   8.798   3.759
20093SOL    HW162286   4.564   8.817   3.845
20093SOL    HW262287   4.616   8.885   3.718
20094SOL     OW62288   4.367   9.259   4.629
20094SOL    HW162289   4.352   9.354   4.615
20094SOL    HW262290   4.463   9.252   4.636
20095SOL     OW62291   4.603   8.401   4.572
20095SOL    HW162292   4.638   8.322   4.614
20095SOL    HW262293   4.575   8.453   4.649
20096SOL     OW62294   4.827   8.454   3.833
20096SOL    HW162295   4.788   8.510   3.764
20096SOL    HW262296   4.876   8.390   3.778
20097SOL     OW62297   5.585   9.008   4.560
20097SOL    HW162298   5.491   9.003   4.545
20097SOL    HW262299   5.601   8.937   4.624
20098SOL     OW62300   3.946   8.758   5.574
20098SOL    HW162301   3.880   8.694   5.544
20098SOL    HW262302   3.930   8.759   5.670
20099SOL     OW62303   3.804   8.697   4.381
20099SOL    HW162304   3.794   8.648   4.464
20099SOL    HW262305   3.882   8.654   4.343
20100SOL     OW62306   4.401   8.850   5.349
20100SOL    HW162307   4.321   8.801   5.375
20100SOL    HW262308   4.393   8.930   5.405
20101SOL     OW62309   5.538   7.617   4.963
20101SOL    HW162310   5.541   7.521   4.971
20101SOL    HW262311   5.549   7.630   4.867
20102SOL     OW62312   4.153   7.872   4.250
20102SOL    HW162313   4.191   7.799   4.199
20102SOL    HW262314   4.107   7.828   4.323
20103SOL     OW62315   5.443   8.934   4.807
20103SOL    HW162316   5.357   8.913   4.769
20103SOL    HW262317   5.442   8.875   4.884
20104SOL     OW62318   4.040   7.999   5.001
20104SOL    HW162319   4.093   7.947   5.066
20104SOL    HW262320   4.058   7.952   4.918
20105SOL     OW62321   4.545   9.044   4.399
20105SOL    HW162322   4.540   9.068   4.305
20105SOL    HW262323   4.459   9.001   4.412
20106SOL     OW62324   5.146   7.710   4.830
20106SOL    HW162325   5.183   7.636   4.880
20106SOL    HW262326   5.089   7.755   4.898
20107SOL     OW62327   4.726   7.430   4.871
20107SOL    HW162328   4.679   7.345   4.880
20107SOL    HW262329   4.818   7.398   4.881
20108SOL     OW62330   4.515   8.780   4.035
20108SOL    HW162331   4.484   8.688   4.038
20108SOL    HW262332   4.581   8.781   4.107
20109SOL     OW62333   4.321   9.007   4.987
20109SOL    HW162334   4.319   9.095   5.030
20109SOL    HW262335   4.416   9.000   4.969
20110SOL     OW62336   5.048   7.492   3.882
20110SOL    HW162337   5.062   7.412   3.831
20110SOL    HW262338   4.957   7.474   3.917
20111SOL     OW62339   4.993   7.918   4.403
20111SOL    HW162340   4.941   7.998   4.425
20111SOL    HW262341   4.990   7.868   4.487
20112SOL     OW62342   5.324   7.640   4.601
20112SOL    HW162343   5.241   7.647   4.651
20112SOL    HW262344   5.324   7.722   4.550
20113SOL     OW62345   3.768   8.523   4.037
20113SOL    HW162346   3.860   8.515   4.008
20113SOL    HW262347   3.749   8.430   4.062
20114SOL     OW62348   4.599   9.098   4.054
20114SOL    HW162349   4.523   9.086   3.996
20114SOL    HW262350   4.579   9.180   4.103
20115SOL     OW62351   3.935   8.040   5.691
20115SOL    HW162352   3.861   8.100   5.703
20115SOL    HW262353   3.947   8.031   5.595
20116SOL     OW62354   4.301   8.767   6.774
20116SOL    HW162355   4.213   8.758   6.735
20116SOL    HW262356   4.301   8.860   6.801
20117SOL     OW62357   5.253   8.981   6.298
20117SOL    HW162358   5.213   8.963   6.385
20117SOL    HW262359   5.178   8.977   6.236
20118SOL     OW62360   4.855   8.131   6.303
20118SOL    HW162361   4.881   8.222   6.277
20118SOL    HW262362   4.818   8.146   6.391
20119SOL     OW62363   5.493   8.049   5.821
20119SOL    HW162364   5.480   8.049   5.724
20119SOL    HW262365   5.452   7.965   5.846
20120SOL     OW62366   4.487   8.627   6.644
20120SOL    HW162367   4.413   8.671   6.691
20120SOL    HW262368   4.507   8.695   6.578
20121SOL     OW62369   4.625   8.265   7.435
20121SOL    HW162370   4.532   8.288   7.431
20121SOL    HW262371   4.653   8.279   7.342
20122SOL     OW62372   4.410   8.464   6.221
20122SOL    HW162373   4.473   8.452   6.295
20122SOL    HW262374   4.337   8.512   6.264
20123SOL     OW62375   4.426   8.608   7.410
20123SOL    HW162376   4.472   8.693   7.428
20123SOL    HW262377   4.340   8.641   7.378
20124SOL     OW62378   5.198   8.944   6.956
20124SOL    HW162379   5.254   9.025   6.962
20124SOL    HW262380   5.136   8.959   7.029
20125SOL     OW62381   4.165   7.855   7.106
20125SOL    HW162382   4.237   7.793   7.086
20125SOL    HW262383   4.086   7.798   7.096
20126SOL     OW62384   5.326   7.906   6.325
20126SOL    HW162385   5.257   7.915   6.258
20126SOL    HW262386   5.322   7.991   6.369
20127SOL     OW62387   3.944   9.164   6.055
20127SOL    HW162388   3.970   9.235   6.117
20127SOL    HW262389   4.009   9.172   5.985
20128SOL     OW62390   4.858   8.790   7.229
20128SOL    HW162391   4.891   8.805   7.319
20128SOL    HW262392   4.808   8.708   7.244
20129SOL     OW62393   3.962   8.866   6.103
20129SOL    HW162394   3.946   8.959   6.125
20129SOL    HW262395   3.897   8.819   6.158
20130SOL     OW62396   4.003   8.525   6.475
20130SOL    HW162397   3.988   8.450   6.535
20130SOL    HW262398   3.946   8.593   6.518
20131SOL     OW62399   4.333   9.249   7.009
20131SOL    HW162400   4.254   9.223   7.060
20131SOL    HW262401   4.348   9.341   7.037
20132SOL     OW62402   4.292   8.423   5.691
20132SOL    HW162403   4.341   8.468   5.620
20132SOL    HW262404   4.333   8.465   5.769
20133SOL     OW62405   5.328   7.545   7.070
20133SOL    HW162406   5.302   7.615   7.009
20133SOL    HW262407   5.337   7.593   7.154
20134SOL     OW62408   5.570   9.179   5.936
20134SOL    HW162409   5.641   9.163   6.000
20134SOL    HW262410   5.584   9.272   5.913
20135SOL     OW62411   3.769   9.033   5.714
20135SOL    HW162412   3.741   8.944   5.741
20135SOL    HW262413   3.741   9.088   5.789
20136SOL     OW62414   5.406   8.377   6.246
20136SOL    HW162415   5.473   8.328   6.196
20136SOL    HW262416   5.374   8.438   6.179
20137SOL     OW62417   5.368   8.577   6.025
20137SOL    HW162418   5.458   8.574   5.991
20137SOL    HW262419   5.374   8.646   6.094
20138SOL     OW62420   3.851   8.201   7.192
20138SOL    HW162421   3.939   8.234   7.168
20138SOL    HW262422   3.803   8.284   7.209
20139SOL     OW62423   4.386   8.799   6.335
20139SOL    HW162424   4.322   8.726   6.349
20139SOL    HW262425   4.341   8.848   6.265
20140SOL     OW62426   5.029   8.623   6.994
20140SOL    HW162427   5.068   8.538   7.018
20140SOL    HW262428   5.053   8.672   7.075
20141SOL     OW62429   3.893   8.415   6.862
20141SOL    HW162430   3.983   8.385   6.846
20141SOL    HW262431   3.842   8.371   6.792
20142SOL     OW62432   5.267   8.411   5.766
20142SOL    HW162433   5.188   8.362   5.795
20142SOL    HW262434   5.303   8.441   5.850
20143SOL     OW62435   4.896   9.249   7.199
20143SOL    HW162436   4.908   9.314   7.129
20143SOL    HW262437   4.921   9.166   7.155
20144SOL     OW62438   4.055   7.680   7.387
20144SOL    HW162439   4.092   7.761   7.424
20144SOL    HW262440   3.959   7.694   7.402
20145SOL     OW62441   5.196   8.872   6.552
20145SOL    HW162442   5.132   8.894   6.622
20145SOL    HW262443   5.160   8.788   6.518
20146SOL     OW62444   5.392   9.182   6.188
20146SOL    HW162445   5.377   9.149   6.099
20146SOL    HW262446   5.351   9.112   6.243
20147SOL     OW62447   4.308   8.167   5.854
20147SOL    HW162448   4.323   8.246   5.801
20147SOL    HW262449   4.244   8.195   5.921
20148SOL     OW62450   4.995   7.786   6.498
20148SOL    HW162451   4.907   7.756   6.525
20148SOL    HW262452   5.052   7.745   6.566
20149SOL     OW62453   5.301   9.097   5.893
20149SOL    HW162454   5.395   9.117   5.898
20149SOL    HW262455   5.290   9.088   5.796
20150SOL     OW62456   4.528   8.062   7.040
20150SOL    HW162457   4.507   8.031   7.130
20150SOL    HW262458   4.472   8.004   6.984
20151SOL     OW62459   5.137   7.927   7.269
20151SOL    HW162460   5.147   7.975   7.353
20151SOL    HW262461   5.186   7.844   7.286
20152SOL     OW62462   4.698   8.349   7.169
20152SOL    HW162463   4.738   8.266   7.134
20152SOL    HW262464   4.642   8.375   7.093
20153SOL     OW62465   4.722   7.862   6.814
20153SOL    HW162466   4.631   7.881   6.842
20153SOL    HW262467   4.710   7.787   6.754
20154SOL     OW62468   4.786   8.139   5.997
20154SOL    HW162469   4.786   8.147   6.093
20154SOL    HW262470   4.701   8.090   5.982
20155SOL     OW62471   3.833   9.318   7.155
20155SOL    HW162472   3.846   9.282   7.246
20155SOL    HW262473   3.749   9.278   7.129
20156SOL     OW62474   4.626   7.856   5.765
20156SOL    HW162475   4.684   7.898   5.699
20156SOL    HW262476   4.613   7.768   5.729
20157SOL     OW62477   5.454   8.048   7.430
20157SOL    HW162478   5.413   8.118   7.376
20157SOL    HW262479   5.479   7.985   7.361
20158SOL     OW62480   5.086   8.602   6.142
20158SOL    HW162481   5.161   8.581   6.086
20158SOL    HW262482   5.038   8.667   6.087
20159SOL     OW62483   4.312   7.663   6.498
20159SOL    HW162484   4.310   7.680   6.594
20159SOL    HW262485   4.269   7.739   6.458
20160SOL     OW62486   4.719   8.889   6.080
20160SOL    HW162487   4.682   8.951   6.014
20160SOL    HW262488   4.709   8.938   6.162
20161SOL     OW62489   4.067   9.261   6.432
20161SOL    HW162490   4.127   9.184   6.437
20161SOL    HW262491   4.122   9.332   6.467
20162SOL     OW62492   5.521   8.518   6.474
20162SOL    HW162493   5.494   8.493   6.384
20162SOL    HW262494   5.460   8.467   6.528
20163SOL     OW62495   4.950   9.006   7.079
20163SOL    HW162496   4.925   8.939   7.144
20163SOL    HW262497   4.896   8.980   7.003
20164SOL     OW62498   4.050   8.385   5.842
20164SOL    HW162499   4.129   8.393   5.786
20164SOL    HW262500   3.990   8.334   5.787
20165SOL     OW62501   5.189   8.204   6.309
20165SOL    HW162502   5.184   8.152   6.392
20165SOL    HW262503   5.276   8.245   6.314
20166SOL     OW62504   4.183   8.720   7.315
20166SOL    HW162505   4.147   8.714   7.223
20166SOL    HW262506   4.099   8.726   7.363
20167SOL     OW62507   4.824   9.217   5.823
20167SOL    HW162508   4.757   9.165   5.872
20167SOL    HW262509   4.832   9.169   5.740
20168SOL     OW62510   3.911   7.739   7.081
20168SOL    HW162511   3.835   7.798   7.091
20168SOL    HW262512   3.884   7.659   7.131
20169SOL     OW62513   5.343   8.817   5.681
20169SOL    HW162514   5.308   8.902   5.650
20169SOL    HW262515   5.282   8.752   5.642
20170SOL     OW62516   4.177   9.190   5.896
20170SOL    HW162517   4.224   9.235   5.968
20170SOL    HW262518   4.251   9.158   5.841
20171SOL     OW62519   5.151   7.604   6.020
20171SOL    HW162520   5.093   7.535   5.984
20171SOL    HW262521   5.198   7.553   6.087
20172SOL     OW62522   3.975   9.241   6.809
20172SOL    HW162523   4.033   9.176   6.850
20172SOL    HW262524   3.959   9.198   6.723
20173SOL     OW62525   4.681   9.149   6.475
20173SOL    HW162526   4.740   9.082   6.511
20173SOL    HW262527   4.635   9.100   6.404
20174SOL     OW62528   4.134   8.162   6.072
20174SOL    HW162529   4.132   8.065   6.068
20174SOL    HW262530   4.042   8.183   6.093
20175SOL     OW62531   5.263   7.690   7.301
20175SOL    HW162532   5.266   7.692   7.399
20175SOL    HW262533   5.204   7.614   7.285
20176SOL     OW62534   4.507   7.736   7.356
20176SOL    HW162535   4.584   7.677   7.350
20176SOL    HW262536   4.448   7.686   7.416
20177SOL     OW62537   4.611   8.989   6.774
20177SOL    HW162538   4.590   8.962   6.682
20177SOL    HW262539   4.655   8.910   6.809
20178SOL     OW62540   5.053   8.046   7.032
20178SOL    HW162541   5.089   8.005   7.113
20178SOL    HW262542   5.112   8.121   7.020
20179SOL     OW62543   4.557   8.869   6.523
20179SOL    HW162544   4.641   8.847   6.478
20179SOL    HW262545   4.492   8.850   6.452
20180SOL     OW62546   4.646   7.975   6.477
20180SOL    HW162547   4.611   7.956   6.388
20180SOL    HW262548   4.672   7.887   6.507
20181SOL     OW62549   5.168   8.621   5.613
20181SOL    HW162550   5.198   8.545   5.666
20181SOL    HW262551   5.086   8.648   5.656
20182SOL     OW62552   4.805   8.133   7.056
20182SOL    HW162553   4.747   8.056   7.059
20182SOL    HW262554   4.895   8.094   7.049
20183SOL     OW62555   4.966   9.011   6.356
20183SOL    HW162556   4.950   9.074   6.284
20183SOL    HW262557   5.019   9.064   6.417
20184SOL     OW62558   4.204   8.602   6.323
20184SOL    HW162559   4.130   8.576   6.383
20184SOL    HW262560   4.161   8.590   6.235
20185SOL     OW62561   4.982   9.246   6.195
20185SOL    HW162562   5.030   9.313   6.143
20185SOL    HW262563   4.931   9.302   6.256
20186SOL     OW62564   4.783   8.005   5.603
20186SOL    HW162565   4.731   8.086   5.590
20186SOL    HW262566   4.844   8.026   5.675
20187SOL     OW62567   3.803   7.999   7.016
20187SOL    HW162568   3.885   8.002   6.963
20187SOL    HW262569   3.801   8.086   7.057
20188SOL     OW62570   4.308   7.681   6.766
20188SOL    HW162571   4.344   7.594   6.784
20188SOL    HW262572   4.213   7.669   6.788
20189SOL     OW62573   5.138   8.617   6.463
20189SOL    HW162574   5.058   8.566   6.440
20189SOL    HW262575   5.175   8.630   6.374
20190SOL     OW62576   5.207   8.064   6.551
20190SOL    HW162577   5.157   7.981   6.546
20190SOL    HW262578   5.268   8.046   6.625
20191SOL     OW62579   5.565   8.264   5.980
20191SOL    HW162580   5.621   8.207   6.037
20191SOL    HW262581   5.538   8.198   5.912
20192SOL     OW62582   4.219   8.885   5.701
20192SOL    HW162583   4.138   8.871   5.752
20192SOL    HW262584   4.209   8.820   5.630
20193SOL     OW62585   5.386   8.739   6.246
20193SOL    HW162586   5.483   8.744   6.246
20193SOL    HW262587   5.358   8.829   6.270
20194SOL     OW62588   5.133   8.034   5.650
20194SOL    HW162589   5.073   8.014   5.726
20194SOL    HW262590   5.199   7.966   5.663
20195SOL     OW62591   5.457   8.679   7.162
20195SOL    HW162592   5.549   8.648   7.156
20195SOL    HW262593   5.473   8.773   7.181
20196SOL     OW62594   4.807   8.806   6.926
20196SOL    HW162595   4.721   8.776   6.962
20196SOL    HW262596   4.868   8.746   6.973
20197SOL     OW62597   5.327   9.051   7.231
20197SOL    HW162598   5.340   9.090   7.143
20197SOL    HW262599   5.408   8.999   7.242
20198SOL     OW62600   4.875   8.648   6.680
20198SOL    HW162601   4.798   8.665   6.735
20198SOL    HW262602   4.855   8.700   6.601
20199SOL     OW62603   5.296   8.538   6.670
20199SOL    HW162604   5.333   8.605   6.733
20199SOL    HW262605   5.277   8.594   6.592
20200SOL     OW62606   4.625   7.586   6.973
20200SOL    HW162607   4.657   7.548   6.890
20200SOL    HW262608   4.706   7.586   7.025
20201SOL     OW62609   4.723   8.572   7.325
20201SOL    HW162610   4.631   8.594   7.344
20201SOL    HW262611   4.715   8.493   7.266
20202SOL     OW62612   4.435   8.516   5.922
20202SOL    HW162613   4.410   8.483   6.010
20202SOL    HW262614   4.513   8.459   5.902
20203SOL     OW62615   4.148   8.262   6.838
20203SOL    HW162616   4.216   8.252   6.908
20203SOL    HW262617   4.099   8.179   6.849
20204SOL     OW62618   4.999   7.836   6.846
20204SOL    HW162619   5.013   7.909   6.908
20204SOL    HW262620   4.905   7.848   6.822
20205SOL     OW62621   3.812   9.010   6.942
20205SOL    HW162622   3.806   9.072   6.868
20205SOL    HW262623   3.907   8.989   6.942
20206SOL     OW62624   4.088   8.554   6.089
20206SOL    HW162625   4.074   8.622   6.022
20206SOL    HW262626   4.062   8.474   6.041
20207SOL     OW62627   4.264   7.982   6.415
20207SOL    HW162628   4.292   8.047   6.348
20207SOL    HW262629   4.322   8.000   6.490
20208SOL     OW62630   4.952   8.788   5.983
20208SOL    HW162631   4.997   8.868   6.017
20208SOL    HW262632   4.861   8.805   6.014
20209SOL     OW62633   5.018   8.911   6.756
20209SOL    HW162634   5.078   8.915   6.833
20209SOL    HW262635   4.938   8.869   6.793
20210SOL     OW62636   5.318   8.073   6.068
20210SOL    HW162637   5.261   8.131   6.119
20210SOL    HW262638   5.344   8.127   5.992
20211SOL     OW62639   4.088   8.942   6.963
20211SOL    HW162640   4.062   8.926   6.869
20211SOL    HW262641   4.179   8.974   6.946
20212SOL     OW62642   4.168   8.164   7.221
20212SOL    HW162643   4.217   8.201   7.145
20212SOL    HW262644   4.169   8.069   7.201
20213SOL     OW62645   5.348   8.222   7.267
20213SOL    HW162646   5.260   8.264   7.268
20213SOL    HW262647   5.391   8.267   7.191
20214SOL     OW62648   4.722   7.572   7.357
20214SOL    HW162649   4.790   7.634   7.328
20214SOL    HW262650   4.763   7.488   7.334
20215SOL     OW62651   4.237   7.498   7.304
20215SOL    HW162652   4.188   7.433   7.249
20215SOL    HW262653   4.164   7.559   7.328
20216SOL     OW62654   4.328   8.319   6.640
20216SOL    HW162655   4.336   8.415   6.635
20216SOL    HW262656   4.259   8.306   6.707
20217SOL     OW62657   5.050   8.300   6.681
20217SOL    HW162658   4.967   8.282   6.635
20217SOL    HW262659   5.108   8.236   6.636
20218SOL     OW62660   4.960   7.971   5.850
20218SOL    HW162661   4.962   7.891   5.905
20218SOL    HW262662   4.899   8.025   5.902
20219SOL     OW62663   4.058   7.649   6.846
20219SOL    HW162664   4.018   7.685   6.926
20219SOL    HW262665   3.988   7.592   6.812
20220SOL     OW62666   3.734   8.759   6.857
20220SOL    HW162667   3.778   8.692   6.911
20220SOL    HW262668   3.771   8.842   6.891
20221SOL     OW62669   4.440   8.068   6.637
20221SOL    HW162670   4.513   8.056   6.574
20221SOL    HW262671   4.412   8.161   6.625
20222SOL     OW62672   5.483   8.398   7.437
20222SOL    HW162673   5.439   8.334   7.379
20222SOL    HW262674   5.421   8.401   7.512
20223SOL     OW62675   5.330   7.827   5.939
20223SOL    HW162676   5.316   7.755   6.002
20223SOL    HW262677   5.321   7.906   5.995
20224SOL     OW62678   4.768   8.205   6.564
20224SOL    HW162679   4.744   8.212   6.658
20224SOL    HW262680   4.735   8.115   6.543
20225SOL     OW62681   4.698   9.008   7.293
20225SOL    HW162682   4.684   9.070   7.218
20225SOL    HW262683   4.719   8.926   7.247
20226SOL     OW62684   5.572   8.937   7.193
20226SOL    HW162685   5.601   8.963   7.104
20226SOL    HW262686   5.645   8.970   7.249
20227SOL     OW62687   4.073   8.341   7.392
20227SOL    HW162688   4.161   8.361   7.424
20227SOL    HW262689   4.092   8.268   7.330
20228SOL     OW62690   5.227   7.720   5.714
20228SOL    HW162691   5.164   7.653   5.745
20228SOL    HW262692   5.271   7.747   5.798
20229SOL     OW62693   5.022   8.294   5.608
20229SOL    HW162694   5.065   8.207   5.613
20229SOL    HW262695   5.051   8.324   5.519
20230SOL     OW62696   4.801   8.812   6.441
20230SOL    HW162697   4.804   8.738   6.377
20230SOL    HW262698   4.864   8.876   6.404
20231SOL     OW62699   4.004   8.268   6.579
20231SOL    HW162700   4.088   8.291   6.539
20231SOL    HW262701   4.006   8.171   6.579
20232SOL     OW62702   4.107   7.990   6.625
20232SOL    HW162703   4.025   7.940   6.608
20232SOL    HW262704   4.153   7.985   6.538
20233SOL     OW62705   4.888   7.822   7.275
20233SOL    HW162706   4.838   7.872   7.343
20233SOL    HW262707   4.975   7.864   7.281
20234SOL     OW62708   4.889   7.637   7.078
20234SOL    HW162709   4.889   7.709   7.144
20234SOL    HW262710   4.919   7.682   6.998
20235SOL     OW62711   3.710   8.741   5.772
20235SOL    HW162712   3.625   8.757   5.724
20235SOL    HW262713   3.683   8.672   5.834
20236SOL     OW62714   3.814   9.222   6.529
20236SOL    HW162715   3.779   9.150   6.472
20236SOL    HW262716   3.906   9.230   6.496
20237SOL     OW62717   4.247   9.056   6.466
20237SOL    HW162718   4.303   9.075   6.541
20237SOL    HW262719   4.179   8.998   6.506
20238SOL     OW62720   4.687   8.212   6.819
20238SOL    HW162721   4.737   8.183   6.897
20238SOL    HW262722   4.599   8.177   6.840
20239SOL     OW62723   3.935   7.969   7.305
20239SOL    HW162724   3.966   7.918   7.229
20239SOL    HW262725   3.893   8.046   7.262
20240SOL     OW62726   5.114   8.363   7.240
20240SOL    HW162727   5.143   8.456   7.241
20240SOL    HW262728   5.099   8.345   7.146
20241SOL     OW62729   4.547   8.032   5.951
20241SOL    HW162730   4.563   7.955   5.892
20241SOL    HW262731   4.455   8.053   5.933
20242SOL     OW62732   5.364   8.063   6.792
20242SOL    HW162733   5.349   7.996   6.860
20242SOL    HW262734   5.451   8.035   6.756
20243SOL     OW62735   3.972   8.991   7.299
20243SOL    HW162736   3.963   9.058   7.368
20243SOL    HW262737   3.973   8.908   7.351
20244SOL     OW62738   4.398   7.923   6.856
20244SOL    HW162739   4.349   7.843   6.828
20244SOL    HW262740   4.402   7.974   6.773
20245SOL     OW62741   4.643   9.163   7.074
20245SOL    HW162742   4.635   9.135   6.982
20245SOL    HW262743   4.642   9.260   7.066
20246SOL     OW62744   4.152   7.945   5.824
20246SOL    HW162745   4.218   8.015   5.816
20246SOL    HW262746   4.073   7.981   5.780
20247SOL     OW62747   3.822   8.587   7.053
20247SOL    HW162748   3.833   8.536   7.137
20247SOL    HW262749   3.843   8.518   6.986
20248SOL     OW62750   5.039   8.297   5.885
20248SOL    HW162751   4.959   8.263   5.927
20248SOL    HW262752   5.014   8.300   5.791
20249SOL     OW62753   5.482   9.186   6.717
20249SOL    HW162754   5.555   9.211   6.657
20249SOL    HW262755   5.476   9.090   6.699
20250SOL     OW62756   4.969   9.176   6.697
20250SOL    HW162757   5.052   9.205   6.655
20250SOL    HW262758   4.982   9.081   6.708
20251SOL     OW62759   3.826   8.657   6.616
20251SOL    HW162760   3.790   8.708   6.691
20251SOL    HW262761   3.747   8.631   6.567
20252SOL     OW62762   4.418   9.094   7.330
20252SOL    HW162763   4.357   9.167   7.315
20252SOL    HW262764   4.498   9.125   7.284
20253SOL     OW62765   5.444   7.571   6.144
20253SOL    HW162766   5.474   7.569   6.052
20253SOL    HW262767   5.436   7.476   6.166
20254SOL     OW62768   5.089   9.025   6.062
20254SOL    HW162769   5.149   9.047   5.988
20254SOL    HW262770   5.049   9.112   6.082
20255SOL     OW62771   3.885   9.238   7.414
20255SOL    HW162772   3.838   9.169   7.466
20255SOL    HW262773   3.926   9.289   7.486
20256SOL     OW62774   4.979   8.381   6.264
20256SOL    HW162775   5.055   8.320   6.270
20256SOL    HW262776   5.014   8.454   6.210
20257SOL     OW62777   4.538   8.714   7.009
20257SOL    HW162778   4.505   8.755   7.091
20257SOL    HW262779   4.466   8.738   6.948
20258SOL     OW62780   4.404   9.070   5.751
20258SOL    HW162781   4.413   9.081   5.654
20258SOL    HW262782   4.342   8.994   5.751
20259SOL     OW62783   5.344   9.163   6.972
20259SOL    HW162784   5.394   9.182   6.890
20259SOL    HW262785   5.329   9.253   7.009
20260SOL     OW62786   5.562   7.615   6.566
20260SOL    HW162787   5.586   7.530   6.525
20260SOL    HW262788   5.478   7.640   6.523
20261SOL     OW62789   4.904   9.070   5.607
20261SOL    HW162790   4.912   8.976   5.628
20261SOL    HW262791   4.846   9.071   5.528
20262SOL     OW62792   4.538   8.445   6.968
20262SOL    HW162793   4.551   8.448   6.873
20262SOL    HW262794   4.538   8.540   6.992
20263SOL     OW62795   4.633   8.359   5.852
20263SOL    HW162796   4.713   8.396   5.810
20263SOL    HW262797   4.667   8.282   5.899
20264SOL     OW62798   5.275   9.079   5.622
20264SOL    HW162799   5.179   9.086   5.617
20264SOL    HW262800   5.299   9.079   5.526
20265SOL     OW62801   4.072   8.703   7.081
20265SOL    HW162802   4.080   8.787   7.032
20265SOL    HW262803   3.985   8.668   7.054
20266SOL     OW62804   5.328   8.745   6.838
20266SOL    HW162805   5.410   8.740   6.891
20266SOL    HW262806   5.279   8.817   6.881
20267SOL     OW62807   4.783   8.572   6.320
20267SOL    HW162808   4.703   8.524   6.349
20267SOL    HW262809   4.837   8.500   6.283
20268SOL     OW62810   4.756   7.686   6.571
20268SOL    HW162811   4.700   7.654   6.499
20268SOL    HW262812   4.768   7.606   6.627
20269SOL     OW62813   4.358   8.954   6.075
20269SOL    HW162814   4.390   8.895   6.005
20269SOL    HW262815   4.270   8.979   6.045
20270SOL     OW62816   5.425   7.832   6.971
20270SOL    HW162817   5.498   7.896   6.975
20270SOL    HW262818   5.465   7.761   6.916
20271SOL     OW62819   3.965   8.819   5.844
20271SOL    HW162820   3.870   8.800   5.839
20271SOL    HW262821   3.974   8.847   5.938
20272SOL     OW62822   3.853   8.476   7.294
20272SOL    HW162823   3.775   8.459   7.351
20272SOL    HW262824   3.924   8.426   7.339
20273SOL     OW62825   4.393   7.662   7.082
20273SOL    HW162826   4.480   7.642   7.042
20273SOL    HW262827   4.413   7.673   7.175
20274SOL     OW62828   5.139   8.323   6.953
20274SOL    HW162829   5.113   8.287   6.867
20274SOL    HW262830   5.236   8.330   6.944
20275SOL     OW62831   4.924   8.809   5.705
20275SOL    HW162832   4.847   8.750   5.709
20275SOL    HW262833   4.950   8.812   5.799
20276SOL     OW62834   4.337   8.250   7.020
20276SOL    HW162835   4.386   8.332   7.003
20276SOL    HW262836   4.410   8.186   7.026
20277SOL     OW62837   5.230   9.225   6.553
20277SOL    HW162838   5.268   9.272   6.478
20277SOL    HW262839   5.309   9.200   6.603
20278SOL     OW62840   4.471   7.999   7.294
20278SOL    HW162841   4.472   8.041   7.379
20278SOL    HW262842   4.475   7.904   7.317
20279SOL     OW62843   5.188   8.632   7.217
20279SOL    HW162844   5.176   8.638   7.314
20279SOL    HW262845   5.282   8.657   7.208
20280SOL     OW62846   4.102   9.189   7.149
20280SOL    HW162847   4.016   9.231   7.130
20280SOL    HW262848   4.074   9.098   7.170
20281SOL     OW62849   5.401   8.323   6.807
20281SOL    HW162850   5.391   8.229   6.783
20281SOL    HW262851   5.367   8.371   6.729
20282SOL     OW62852   4.944   7.793   6.056
20282SOL    HW162853   5.000   7.715   6.046
20282SOL    HW262854   4.981   7.834   6.137
20283SOL     OW62855   4.340   8.188   6.240
20283SOL    HW162856   4.371   8.278   6.220
20283SOL    HW262857   4.266   8.178   6.176
20284SOL     OW62858   5.492   7.829   7.233
20284SOL    HW162859   5.460   7.837   7.141
20284SOL    HW262860   5.418   7.780   7.272
20285SOL     OW62861   5.440   8.379   7.074
20285SOL    HW162862   5.459   8.474   7.082
20285SOL    HW262863   5.460   8.362   6.980
20286SOL     OW62864   4.569   8.815   5.632
20286SOL    HW162865   4.551   8.822   5.727
20286SOL    HW262866   4.595   8.903   5.604
20287SOL     OW62867   4.414   9.295   6.582
20287SOL    HW162868   4.373   9.358   6.521
20287SOL    HW262869   4.473   9.245   6.525
20288SOL     OW62870   4.596   8.412   6.435
20288SOL    HW162871   4.633   8.333   6.476
20288SOL    HW262872   4.569   8.466   6.511
20289SOL     OW62873   4.829   8.462   5.688
20289SOL    HW162874   4.795   8.503   5.607
20289SOL    HW262875   4.892   8.397   5.652
20290SOL     OW62876   5.591   9.002   6.411
20290SOL    HW162877   5.498   8.999   6.386
20290SOL    HW262878   5.598   8.932   6.477
20291SOL     OW62879   3.958   8.767   7.445
20291SOL    HW162880   3.889   8.705   7.416
20291SOL    HW262881   3.933   8.780   7.538
20292SOL     OW62882   3.826   8.661   6.253
20292SOL    HW162883   3.774   8.616   6.322
20292SOL    HW262884   3.915   8.629   6.272
20293SOL     OW62885   4.407   8.845   7.211
20293SOL    HW162886   4.329   8.793   7.237
20293SOL    HW262887   4.389   8.931   7.254
20294SOL     OW62888   5.534   7.631   6.827
20294SOL    HW162889   5.550   7.536   6.833
20294SOL    HW262890   5.542   7.645   6.730
20295SOL     OW62891   4.143   7.852   6.115
20295SOL    HW162892   4.151   7.821   6.023
20295SOL    HW262893   4.152   7.771   6.168
20296SOL     OW62894   5.452   8.924   6.663
20296SOL    HW162895   5.368   8.896   6.623
20296SOL    HW262896   5.456   8.867   6.741
20297SOL     OW62897   4.046   8.019   6.894
20297SOL    HW162898   4.102   7.963   6.950
20297SOL    HW262899   4.069   7.990   6.803
20298SOL     OW62900   4.547   9.046   6.264
20298SOL    HW162901   4.525   9.070   6.173
20298SOL    HW262902   4.467   8.997   6.289
20299SOL     OW62903   5.151   7.687   6.683
20299SOL    HW162904   5.176   7.604   6.726
20299SOL    HW262905   5.102   7.735   6.753
20300SOL     OW62906   4.775   7.480   6.753
20300SOL    HW162907   4.699   7.424   6.728
20300SOL    HW262908   4.847   7.415   6.746
20301SOL     OW62909   4.517   8.780   5.903
20301SOL    HW162910   4.484   8.688   5.908
20301SOL    HW262911   4.581   8.782   5.975
20302SOL     OW62912   4.336   9.024   6.872
20302SOL    HW162913   4.338   9.113   6.914
20302SOL    HW262914   4.426   9.017   6.838
20303SOL     OW62915   5.043   7.492   5.732
20303SOL    HW162916   5.069   7.408   5.692
20303SOL    HW262917   4.947   7.486   5.728
20304SOL     OW62918   5.042   7.927   6.276
20304SOL    HW162919   4.973   7.995   6.267
20304SOL    HW262920   5.016   7.880   6.358
20305SOL     OW62921   5.329   7.675   6.455
20305SOL    HW162922   5.243   7.667   6.499
20305SOL    HW262923   5.319   7.756   6.402
20306SOL     OW62924   4.620   9.089   5.922
20306SOL    HW162925   4.541   9.076   5.866
20306SOL    HW262926   4.595   9.164   5.980
20307SOL     OW62927   3.956   8.097   7.583
20307SOL    HW162928   3.866   8.074   7.612
20307SOL    HW262929   3.958   8.066   7.491
20308SOL     OW62930   3.953   7.726   8.449
20308SOL    HW162931   3.972   7.699   8.541
20308SOL    HW262932   3.867   7.682   8.434
20309SOL     OW62933   3.735   7.839   8.076
20309SOL    HW162934   3.656   7.861   8.129
20309SOL    HW262935   3.709   7.752   8.042
20310SOL     OW62936   5.252   8.984   8.151
20310SOL    HW162937   5.212   8.954   8.235
20310SOL    HW262938   5.176   8.986   8.089
20311SOL     OW62939   4.835   8.139   8.147
20311SOL    HW162940   4.882   8.223   8.127
20311SOL    HW262941   4.810   8.154   8.239
20312SOL     OW62942   5.500   8.059   7.691
20312SOL    HW162943   5.483   8.055   7.595
20312SOL    HW262944   5.448   7.984   7.724
20313SOL     OW62945   4.523   8.600   8.450
20313SOL    HW162946   4.455   8.612   8.520
20313SOL    HW262947   4.528   8.691   8.416
20314SOL     OW62948   4.604   8.205   9.243
20314SOL    HW162949   4.575   8.269   9.309
20314SOL    HW262950   4.625   8.260   9.165
20315SOL     OW62951   4.417   8.481   8.099
20315SOL    HW162952   4.480   8.458   8.169
20315SOL    HW262953   4.347   8.530   8.147
20316SOL     OW62954   4.420   8.602   9.246
20316SOL    HW162955   4.461   8.689   9.262
20316SOL    HW262956   4.331   8.627   9.214
20317SOL     OW62957   4.010   8.917   8.533
20317SOL    HW162958   3.970   8.836   8.497
20317SOL    HW262959   4.082   8.937   8.469
20318SOL     OW62960   5.195   8.950   8.820
20318SOL    HW162961   5.248   9.032   8.831
20318SOL    HW262962   5.129   8.960   8.891
20319SOL     OW62963   4.158   7.845   8.964
20319SOL    HW162964   4.234   7.787   8.949
20319SOL    HW262965   4.081   7.787   8.949
20320SOL     OW62966   5.353   7.897   8.193
20320SOL    HW162967   5.282   7.920   8.133
20320SOL    HW262968   5.351   7.971   8.255
20321SOL     OW62969   3.950   9.166   7.928
20321SOL    HW162970   3.980   9.242   7.982
20321SOL    HW262971   4.010   9.171   7.852
20322SOL     OW62972   4.854   8.792   9.118
20322SOL    HW162973   4.887   8.792   9.208
20322SOL    HW262974   4.809   8.705   9.115
20323SOL     OW62975   3.973   8.884   7.970
20323SOL    HW162976   3.970   8.981   7.982
20323SOL    HW262977   3.906   8.853   8.034
20324SOL     OW62978   3.995   8.531   8.346
20324SOL    HW162979   3.997   8.459   8.410
20324SOL    HW262980   3.947   8.600   8.394
20325SOL     OW62981   4.345   9.245   8.878
20325SOL    HW162982   4.261   9.217   8.918
20325SOL    HW262983   4.352   9.337   8.906
20326SOL     OW62984   4.325   8.426   7.571
20326SOL    HW162985   4.358   8.492   7.505
20326SOL    HW262986   4.353   8.468   7.654
20327SOL     OW62987   5.337   7.555   8.942
20327SOL    HW162988   5.360   7.628   8.882
20327SOL    HW262989   5.343   7.597   9.028
20328SOL     OW62990   3.841   8.091   8.012
20328SOL    HW162991   3.806   8.000   8.024
20328SOL    HW262992   3.827   8.131   8.100
20329SOL     OW62993   5.575   9.192   7.800
20329SOL    HW162994   5.565   9.203   7.895
20329SOL    HW262995   5.602   9.281   7.772
20330SOL     OW62996   3.781   9.042   7.568
20330SOL    HW162997   3.766   8.948   7.589
20330SOL    HW262998   3.747   9.086   7.647
20331SOL     OW62999   5.408   8.349   8.082
20331SOL    HW163000   5.488   8.326   8.033
20331SOL    HW263001   5.368   8.414   8.022
20332SOL     OW63002   5.356   8.563   7.899
20332SOL    HW163003   5.442   8.568   7.855
20332SOL    HW263004   5.365   8.633   7.967
20333SOL     OW63005   3.832   8.202   9.020
20333SOL    HW163006   3.915   8.245   9.046
20333SOL    HW263007   3.768   8.275   9.031
20334SOL     OW63008   4.327   8.853   8.208
20334SOL    HW163009   4.291   8.763   8.226
20334SOL    HW263010   4.306   8.862   8.113
20335SOL     OW63011   5.019   8.685   8.870
20335SOL    HW163012   5.051   8.614   8.811
20335SOL    HW263013   5.072   8.671   8.950
20336SOL     OW63014   4.561   7.451   7.911
20336SOL    HW163015   4.589   7.544   7.922
20336SOL    HW263016   4.465   7.457   7.929
20337SOL     OW63017   3.894   8.426   8.707
20337SOL    HW163018   3.988   8.404   8.699
20337SOL    HW263019   3.849   8.351   8.665
20338SOL     OW63020   5.266   8.395   7.629
20338SOL    HW163021   5.182   8.358   7.660
20338SOL    HW263022   5.301   8.435   7.710
20339SOL     OW63023   4.904   9.257   9.061
20339SOL    HW163024   4.907   9.315   8.984
20339SOL    HW263025   4.923   9.170   9.022
20340SOL     OW63026   4.078   7.679   9.228
20340SOL    HW163027   4.127   7.758   9.252
20340SOL    HW263028   3.987   7.704   9.256
20341SOL     OW63029   5.194   8.872   8.413
20341SOL    HW163030   5.130   8.888   8.486
20341SOL    HW263031   5.169   8.782   8.387
20342SOL     OW63032   5.404   9.171   8.046
20342SOL    HW163033   5.347   9.176   7.969
20342SOL    HW263034   5.360   9.100   8.097
20343SOL     OW63035   4.312   8.177   7.716
20343SOL    HW163036   4.300   8.263   7.671
20343SOL    HW263037   4.238   8.176   7.780
20344SOL     OW63038   4.987   7.829   8.404
20344SOL    HW163039   4.902   7.781   8.406
20344SOL    HW263040   5.048   7.765   8.447
20345SOL     OW63041   5.294   9.087   7.753
20345SOL    HW163042   5.383   9.122   7.765
20345SOL    HW263043   5.291   9.079   7.656
20346SOL     OW63044   4.536   8.068   8.906
20346SOL    HW163045   4.510   8.032   8.994
20346SOL    HW263046   4.481   8.014   8.846
20347SOL     OW63047   5.112   7.919   9.117
20347SOL    HW163048   5.114   7.983   9.191
20347SOL    HW263049   5.174   7.850   9.147
20348SOL     OW63050   4.683   8.343   9.024
20348SOL    HW163051   4.727   8.262   8.990
20348SOL    HW263052   4.642   8.379   8.943
20349SOL     OW63053   4.654   7.825   8.721
20349SOL    HW163054   4.569   7.873   8.722
20349SOL    HW263055   4.670   7.813   8.626
20350SOL     OW63056   4.750   8.173   7.862
20350SOL    HW163057   4.772   8.171   7.957
20350SOL    HW263058   4.675   8.110   7.860
20351SOL     OW63059   3.831   8.252   8.238
20351SOL    HW163060   3.901   8.250   8.306
20351SOL    HW263061   3.786   8.336   8.256
20352SOL     OW63062   3.825   9.292   9.015
20352SOL    HW163063   3.843   9.269   9.109
20352SOL    HW263064   3.730   9.276   9.008
20353SOL     OW63065   4.602   7.815   7.662
20353SOL    HW163066   4.643   7.854   7.584
20353SOL    HW263067   4.591   7.724   7.632
20354SOL     OW63068   5.451   8.043   9.281
20354SOL    HW163069   5.408   8.115   9.230
20354SOL    HW263070   5.473   7.982   9.209
20355SOL     OW63071   5.081   8.593   8.010
20355SOL    HW163072   5.163   8.590   7.958
20355SOL    HW263073   5.030   8.660   7.961
20356SOL     OW63074   4.269   7.639   8.336
20356SOL    HW163075   4.278   7.656   8.432
20356SOL    HW263076   4.265   7.729   8.299
20357SOL     OW63077   4.709   8.886   7.930
20357SOL    HW163078   4.668   8.953   7.872
20357SOL    HW263079   4.727   8.938   8.010
20358SOL     OW63080   4.068   9.260   8.302
20358SOL    HW163081   4.105   9.172   8.321
20358SOL    HW263082   4.144   9.317   8.321
20359SOL     OW63083   5.535   8.483   8.327
20359SOL    HW163084   5.479   8.487   8.248
20359SOL    HW263085   5.470   8.484   8.399
20360SOL     OW63086   4.945   9.011   8.951
20360SOL    HW163087   4.918   8.944   9.016
20360SOL    HW263088   4.902   8.976   8.871
20361SOL     OW63089   4.025   8.391   7.693
20361SOL    HW163090   4.078   8.413   7.616
20361SOL    HW263091   3.992   8.303   7.668
20362SOL     OW63092   5.200   8.196   8.161
20362SOL    HW163093   5.199   8.176   8.255
20362SOL    HW263094   5.281   8.250   8.151
20363SOL     OW63095   4.182   8.716   9.169
20363SOL    HW163096   4.138   8.718   9.081
20363SOL    HW263097   4.103   8.720   9.227
20364SOL     OW63098   4.819   9.223   7.685
20364SOL    HW163099   4.762   9.157   7.729
20364SOL    HW263100   4.842   9.180   7.601
20365SOL     OW63101   3.901   7.736   8.945
20365SOL    HW163102   3.827   7.796   8.963
20365SOL    HW263103   3.871   7.654   8.986
20366SOL     OW63104   5.353   8.807   7.544
20366SOL    HW163105   5.307   8.892   7.526
20366SOL    HW263106   5.291   8.742   7.508
20367SOL     OW63107   4.183   9.191   7.763
20367SOL    HW163108   4.231   9.246   7.828
20367SOL    HW263109   4.254   9.158   7.707
20368SOL     OW63110   5.127   7.589   7.904
20368SOL    HW163111   5.111   7.544   7.820
20368SOL    HW263112   5.224   7.587   7.909
20369SOL     OW63113   3.977   9.241   8.686
20369SOL    HW163114   4.037   9.180   8.730
20369SOL    HW263115   3.972   9.204   8.597
20370SOL     OW63116   4.687   9.156   8.330
20370SOL    HW163117   4.738   9.089   8.376
20370SOL    HW263118   4.641   9.103   8.262
20371SOL     OW63119   4.114   8.132   7.918
20371SOL    HW163120   4.141   8.040   7.935
20371SOL    HW263121   4.019   8.127   7.938
20372SOL     OW63122   5.260   7.704   9.179
20372SOL    HW163123   5.263   7.712   9.278
20372SOL    HW263124   5.214   7.620   9.169
20373SOL     OW63125   4.373   7.568   7.523
20373SOL    HW163126   4.431   7.496   7.549
20373SOL    HW263127   4.330   7.533   7.441
20374SOL     OW63128   4.488   7.700   9.183
20374SOL    HW163129   4.568   7.646   9.200
20374SOL    HW263130   4.437   7.689   9.264
20375SOL     OW63131   4.633   9.010   8.628
20375SOL    HW163132   4.598   8.969   8.547
20375SOL    HW263133   4.665   8.932   8.678
20376SOL     OW63134   5.057   8.037   8.872
20376SOL    HW163135   5.094   8.006   8.957
20376SOL    HW263136   5.104   8.120   8.857
20377SOL     OW63137   4.545   8.874   8.380
20377SOL    HW163138   4.625   8.850   8.331
20377SOL    HW263139   4.474   8.865   8.314
20378SOL     OW63140   4.680   7.949   8.365
20378SOL    HW163141   4.657   7.944   8.269
20378SOL    HW263142   4.697   7.855   8.384
20379SOL     OW63143   4.295   7.496   7.939
20379SOL    HW163144   4.217   7.496   7.998
20379SOL    HW263145   4.274   7.572   7.882
20380SOL     OW63146   5.162   8.622   7.478
20380SOL    HW163147   5.187   8.551   7.540
20380SOL    HW263148   5.077   8.654   7.512
20381SOL     OW63149   4.012   7.491   7.632
20381SOL    HW163150   4.067   7.561   7.595
20381SOL    HW263151   4.079   7.429   7.668
20382SOL     OW63152   4.658   7.705   7.933
20382SOL    HW163153   4.637   7.749   7.849
20382SOL    HW263154   4.754   7.720   7.939
20383SOL     OW63155   4.811   8.127   8.938
20383SOL    HW163156   4.750   8.053   8.922
20383SOL    HW263157   4.899   8.091   8.917
20384SOL     OW63158   4.968   9.007   8.200
20384SOL    HW163159   4.959   9.077   8.133
20384SOL    HW263160   5.013   9.053   8.271
20385SOL     OW63161   4.200   8.610   8.185
20385SOL    HW163162   4.128   8.583   8.245
20385SOL    HW263163   4.158   8.591   8.098
20386SOL     OW63164   4.992   9.250   8.046
20386SOL    HW163165   5.047   9.301   7.982
20386SOL    HW263166   4.970   9.321   8.107
20387SOL     OW63167   4.790   7.990   7.463
20387SOL    HW163168   4.739   8.072   7.453
20387SOL    HW263169   4.857   8.013   7.529
20388SOL     OW63170   3.782   8.000   8.852
20388SOL    HW163171   3.877   7.994   8.830
20388SOL    HW263172   3.778   8.082   8.905
20389SOL     OW63173   4.292   7.671   8.601
20389SOL    HW163174   4.336   7.586   8.620
20389SOL    HW263175   4.202   7.656   8.636
20390SOL     OW63176   4.611   7.906   8.115
20390SOL    HW163177   4.553   7.955   8.055
20390SOL    HW263178   4.622   7.821   8.069
20391SOL     OW63179   4.741   7.529   8.210
20391SOL    HW163180   4.701   7.514   8.124
20391SOL    HW263181   4.713   7.449   8.258
20392SOL     OW63182   5.133   8.617   8.341
20392SOL    HW163183   5.079   8.540   8.364
20392SOL    HW263184   5.127   8.618   8.245
20393SOL     OW63185   5.182   8.037   8.421
20393SOL    HW163186   5.130   7.956   8.433
20393SOL    HW263187   5.251   8.032   8.490
20394SOL     OW63188   5.560   8.272   7.850
20394SOL    HW163189   5.620   8.216   7.903
20394SOL    HW263190   5.544   8.213   7.774
20395SOL     OW63191   4.215   8.862   7.564
20395SOL    HW163192   4.134   8.853   7.618
20395SOL    HW263193   4.191   8.815   7.483
20396SOL     OW63194   5.396   8.736   8.112
20396SOL    HW163195   5.493   8.740   8.112
20396SOL    HW263196   5.369   8.827   8.131
20397SOL     OW63197   5.132   8.044   7.524
20397SOL    HW163198   5.083   8.012   7.601
20397SOL    HW263199   5.223   8.024   7.550
20398SOL     OW63200   4.250   7.685   7.759
20398SOL    HW163201   4.286   7.649   7.676
20398SOL    HW263202   4.215   7.770   7.729
20399SOL     OW63203   5.455   8.679   9.025
20399SOL    HW163204   5.543   8.640   9.012
20399SOL    HW263205   5.477   8.771   9.043
20400SOL     OW63206   4.795   8.814   8.791
20400SOL    HW163207   4.716   8.774   8.832
20400SOL    HW263208   4.868   8.762   8.831
20401SOL     OW63209   5.333   9.054   9.086
20401SOL    HW163210   5.336   9.093   8.997
20401SOL    HW263211   5.414   9.000   9.088
20402SOL     OW63212   4.846   8.676   8.546
20402SOL    HW163213   4.775   8.690   8.610
20402SOL    HW263214   4.813   8.719   8.466
20403SOL     OW63215   5.330   8.542   8.533
20403SOL    HW163216   5.334   8.608   8.606
20403SOL    HW263217   5.267   8.586   8.475
20404SOL     OW63218   4.686   7.574   8.833
20404SOL    HW163219   4.696   7.524   8.749
20404SOL    HW263220   4.622   7.643   8.808
20405SOL     OW63221   4.725   8.560   9.190
20405SOL    HW163222   4.635   8.592   9.211
20405SOL    HW263223   4.709   8.487   9.127
20406SOL     OW63224   4.473   8.490   7.814
20406SOL    HW163225   4.390   8.524   7.851
20406SOL    HW263226   4.511   8.457   7.897
20407SOL     OW63227   4.141   8.255   8.712
20407SOL    HW163228   4.213   8.259   8.778
20407SOL    HW263229   4.101   8.169   8.731
20408SOL     OW63230   4.976   7.817   8.744
20408SOL    HW163231   5.015   7.900   8.780
20408SOL    HW263232   4.931   7.849   8.664
20409SOL     OW63233   3.810   9.024   8.797
20409SOL    HW163234   3.816   9.114   8.763
20409SOL    HW263235   3.904   8.996   8.796
20410SOL     OW63236   4.089   8.550   7.941
20410SOL    HW163237   4.073   8.615   7.871
20410SOL    HW263238   4.063   8.467   7.898
20411SOL     OW63239   4.263   7.997   8.298
20411SOL    HW163240   4.294   8.056   8.227
20411SOL    HW263241   4.324   8.017   8.370
20412SOL     OW63242   4.941   8.774   7.844
20412SOL    HW163243   4.984   8.857   7.874
20412SOL    HW263244   4.851   8.787   7.878
20413SOL     OW63245   5.013   8.913   8.615
20413SOL    HW163246   5.063   8.902   8.697
20413SOL    HW263247   4.940   8.850   8.626
20414SOL     OW63248   5.300   8.059   7.916
20414SOL    HW163249   5.252   8.111   7.983
20414SOL    HW263250   5.340   8.128   7.861
20415SOL     OW63251   4.068   8.956   8.783
20415SOL    HW163252   4.048   8.931   8.689
20415SOL    HW263253   4.165   8.970   8.773
20416SOL     OW63254   4.174   8.168   9.085
20416SOL    HW163255   4.223   8.214   9.014
20416SOL    HW263256   4.202   8.076   9.074
20417SOL     OW63257   5.344   8.224   9.128
20417SOL    HW163258   5.258   8.271   9.126
20417SOL    HW263259   5.387   8.261   9.048
20418SOL     OW63260   4.716   7.559   9.209
20418SOL    HW163261   4.791   7.619   9.215
20418SOL    HW263262   4.752   7.490   9.152
20419SOL     OW63263   4.225   7.455   9.209
20419SOL    HW163264   4.180   7.402   9.141
20419SOL    HW263265   4.168   7.535   9.209
20420SOL     OW63266   4.322   8.348   8.508
20420SOL    HW163267   4.334   8.444   8.510
20420SOL    HW263268   4.257   8.335   8.579
20421SOL     OW63269   5.083   8.302   8.462
20421SOL    HW163270   4.991   8.278   8.444
20421SOL    HW263271   5.124   8.215   8.470
20422SOL     OW63272   4.943   7.986   7.733
20422SOL    HW163273   4.955   7.904   7.784
20422SOL    HW263274   4.885   8.035   7.792
20423SOL     OW63275   4.033   7.642   8.700
20423SOL    HW163276   3.982   7.664   8.780
20423SOL    HW263277   4.007   7.548   8.688
20424SOL     OW63278   3.757   8.753   8.726
20424SOL    HW163279   3.790   8.695   8.798
20424SOL    HW263280   3.773   8.842   8.761
20425SOL     OW63281   4.438   8.093   8.495
20425SOL    HW163282   4.523   8.084   8.450
20425SOL    HW263283   4.415   8.189   8.487
20426SOL     OW63284   5.484   8.427   9.289
20426SOL    HW163285   5.448   8.374   9.216
20426SOL    HW263286   5.408   8.432   9.348
20427SOL     OW63287   4.049   7.517   8.044
20427SOL    HW163288   4.011   7.603   8.071
20427SOL    HW263289   4.048   7.469   8.129
20428SOL     OW63290   5.319   7.826   7.793
20428SOL    HW163291   5.352   7.754   7.850
20428SOL    HW263292   5.312   7.901   7.855
20429SOL     OW63293   4.786   8.200   8.413
20429SOL    HW163294   4.767   8.217   8.508
20429SOL    HW263295   4.755   8.108   8.403
20430SOL     OW63296   4.699   9.017   9.148
20430SOL    HW163297   4.689   9.071   9.067
20430SOL    HW263298   4.725   8.930   9.112
20431SOL     OW63299   5.571   8.936   9.056
20431SOL    HW163300   5.591   8.965   8.966
20431SOL    HW263301   5.649   8.966   9.106
20432SOL     OW63302   4.071   8.351   9.255
20432SOL    HW163303   4.152   8.383   9.299
20432SOL    HW263304   4.105   8.276   9.202
20433SOL     OW63305   5.233   7.697   7.569
20433SOL    HW163306   5.167   7.635   7.603
20433SOL    HW263307   5.268   7.740   7.650
20434SOL     OW63308   4.996   8.279   7.469
20434SOL    HW163309   5.047   8.196   7.481
20434SOL    HW263310   5.035   8.310   7.384
20435SOL     OW63311   4.798   8.813   8.292
20435SOL    HW163312   4.806   8.736   8.232
20435SOL    HW263313   4.863   8.876   8.256
20436SOL     OW63314   4.016   8.251   8.439
20436SOL    HW163315   4.111   8.265   8.426
20436SOL    HW263316   4.016   8.159   8.470
20437SOL     OW63317   4.036   7.980   8.452
20437SOL    HW163318   4.009   7.887   8.439
20437SOL    HW263319   4.104   7.990   8.383
20438SOL     OW63320   4.874   7.797   9.135
20438SOL    HW163321   4.822   7.856   9.194
20438SOL    HW263322   4.963   7.837   9.143
20439SOL     OW63323   3.730   8.770   7.640
20439SOL    HW163324   3.638   8.783   7.607
20439SOL    HW263325   3.726   8.679   7.674
20440SOL     OW63326   3.819   9.228   8.391
20440SOL    HW163327   3.790   9.161   8.326
20440SOL    HW263328   3.910   9.246   8.360
20441SOL     OW63329   4.203   9.031   8.376
20441SOL    HW163330   4.274   9.093   8.402
20441SOL    HW263331   4.251   8.964   8.324
20442SOL     OW63332   4.721   8.219   8.675
20442SOL    HW163333   4.755   8.189   8.760
20442SOL    HW263334   4.633   8.252   8.698
20443SOL     OW63335   3.755   7.986   8.561
20443SOL    HW163336   3.835   7.973   8.508
20443SOL    HW263337   3.790   7.987   8.651
20444SOL     OW63338   3.932   7.969   9.145
20444SOL    HW163339   3.990   7.930   9.078
20444SOL    HW263340   3.891   8.044   9.099
20445SOL     OW63341   5.119   8.367   9.102
20445SOL    HW163342   5.136   8.463   9.099
20445SOL    HW263343   5.104   8.346   9.008
20446SOL     OW63344   4.527   8.032   7.815
20446SOL    HW163345   4.536   7.953   7.758
20446SOL    HW263346   4.437   8.063   7.796
20447SOL     OW63347   5.356   8.060   8.641
20447SOL    HW163348   5.340   8.004   8.717
20447SOL    HW263349   5.444   8.029   8.611
20448SOL     OW63350   3.969   8.991   9.170
20448SOL    HW163351   3.960   9.055   9.241
20448SOL    HW263352   3.980   8.907   9.219
20449SOL     OW63353   4.407   7.934   8.711
20449SOL    HW163354   4.355   7.859   8.677
20449SOL    HW263355   4.409   7.995   8.634
20450SOL     OW63356   4.654   9.146   8.918
20450SOL    HW163357   4.644   9.109   8.830
20450SOL    HW263358   4.634   9.240   8.906
20451SOL     OW63359   4.166   7.927   7.643
20451SOL    HW163360   4.231   7.998   7.649
20451SOL    HW263361   4.083   7.979   7.636
20452SOL     OW63362   3.832   8.577   8.912
20452SOL    HW163363   3.850   8.523   8.991
20452SOL    HW263364   3.852   8.515   8.838
20453SOL     OW63365   5.046   8.483   8.685
20453SOL    HW163366   5.063   8.432   8.604
20453SOL    HW263367   4.979   8.546   8.653
20454SOL     OW63368   5.030   8.309   7.738
20454SOL    HW163369   4.965   8.258   7.787
20454SOL    HW263370   5.004   8.297   7.645
20455SOL     OW63371   5.478   9.199   8.574
20455SOL    HW163372   5.552   9.222   8.514
20455SOL    HW263373   5.475   9.101   8.563
20456SOL     OW63374   4.966   9.180   8.556
20456SOL    HW163375   5.052   9.202   8.517
20456SOL    HW263376   4.975   9.085   8.575
20457SOL     OW63377   3.836   8.705   8.475
20457SOL    HW163378   3.803   8.723   8.566
20457SOL    HW263379   3.759   8.661   8.436
20458SOL     OW63380   4.415   9.094   9.187
20458SOL    HW163381   4.383   9.183   9.167
20458SOL    HW263382   4.505   9.095   9.152
20459SOL     OW63383   5.404   7.585   7.939
20459SOL    HW163384   5.482   7.569   7.883
20459SOL    HW263385   5.404   7.507   7.997
20460SOL     OW63386   5.080   9.016   7.916
20460SOL    HW163387   5.146   9.036   7.847
20460SOL    HW263388   5.045   9.105   7.936
20461SOL     OW63389   3.874   9.249   9.279
20461SOL    HW163390   3.832   9.175   9.327
20461SOL    HW263391   3.923   9.291   9.352
20462SOL     OW63392   4.981   8.362   8.111
20462SOL    HW163393   5.061   8.312   8.133
20462SOL    HW263394   5.018   8.441   8.069
20463SOL     OW63395   4.534   8.719   8.877
20463SOL    HW163396   4.494   8.771   8.950
20463SOL    HW263397   4.458   8.712   8.814
20464SOL     OW63398   4.389   9.064   7.599
20464SOL    HW163399   4.410   9.078   7.505
20464SOL    HW263400   4.326   8.989   7.592
20465SOL     OW63401   5.345   9.169   8.839
20465SOL    HW163402   5.389   9.184   8.753
20465SOL    HW263403   5.333   9.260   8.873
20466SOL     OW63404   5.586   7.617   8.404
20466SOL    HW163405   5.607   7.525   8.381
20466SOL    HW263406   5.497   7.631   8.365
20467SOL     OW63407   3.985   7.760   8.144
20467SOL    HW163408   3.896   7.797   8.126
20467SOL    HW263409   3.992   7.768   8.240
20468SOL     OW63410   4.911   9.081   7.473
20468SOL    HW163411   4.918   8.985   7.490
20468SOL    HW263412   4.853   9.085   7.395
20469SOL     OW63413   4.547   8.451   8.817
20469SOL    HW163414   4.502   8.476   8.735
20469SOL    HW263415   4.546   8.538   8.862
20470SOL     OW63416   5.241   9.040   7.483
20470SOL    HW163417   5.152   9.078   7.485
20470SOL    HW263418   5.270   9.060   7.392
20471SOL     OW63419   4.057   8.724   8.943
20471SOL    HW163420   4.075   8.774   8.861
20471SOL    HW263421   3.978   8.673   8.920
20472SOL     OW63422   5.326   8.755   8.707
20472SOL    HW163423   5.394   8.744   8.775
20472SOL    HW263424   5.267   8.822   8.746
20473SOL     OW63425   4.774   8.572   8.152
20473SOL    HW163426   4.706   8.521   8.200
20473SOL    HW263427   4.840   8.504   8.133
20474SOL     OW63428   4.754   7.680   8.432
20474SOL    HW163429   4.742   7.637   8.345
20474SOL    HW263430   4.749   7.602   8.491
20475SOL     OW63431   4.326   8.924   7.934
20475SOL    HW163432   4.377   8.898   7.856
20475SOL    HW263433   4.250   8.969   7.896
20476SOL     OW63434   5.432   7.815   8.827
20476SOL    HW163435   5.495   7.890   8.823
20476SOL    HW263436   5.479   7.750   8.771
20477SOL     OW63437   3.976   8.820   7.718
20477SOL    HW163438   3.880   8.804   7.709
20477SOL    HW263439   3.981   8.849   7.812
20478SOL     OW63440   3.850   8.460   9.153
20478SOL    HW163441   3.777   8.446   9.217
20478SOL    HW263442   3.928   8.428   9.202
20479SOL     OW63443   4.414   7.644   8.926
20479SOL    HW163444   4.478   7.572   8.928
20479SOL    HW263445   4.422   7.681   9.016
20480SOL     OW63446   3.814   7.783   7.464
20480SOL    HW163447   3.719   7.780   7.448
20480SOL    HW263448   3.841   7.857   7.406
20481SOL     OW63449   5.180   8.293   8.837
20481SOL    HW163450   5.135   8.361   8.783
20481SOL    HW263451   5.272   8.319   8.826
20482SOL     OW63452   3.768   7.616   7.733
20482SOL    HW163453   3.763   7.704   7.692
20482SOL    HW263454   3.857   7.587   7.710
20483SOL     OW63455   4.920   8.809   7.558
20483SOL    HW163456   4.825   8.794   7.563
20483SOL    HW263457   4.947   8.805   7.652
20484SOL     OW63458   4.344   8.257   8.883
20484SOL    HW163459   4.387   8.344   8.886
20484SOL    HW263460   4.421   8.198   8.888
20485SOL     OW63461   5.235   9.234   8.419
20485SOL    HW163462   5.270   9.261   8.333
20485SOL    HW263463   5.316   9.219   8.471
20486SOL     OW63464   4.457   7.980   9.138
20486SOL    HW163465   4.486   8.047   9.201
20486SOL    HW263466   4.463   7.896   9.185
20487SOL     OW63467   5.185   8.628   9.078
20487SOL    HW163468   5.175   8.636   9.175
20487SOL    HW263469   5.279   8.652   9.066
20488SOL     OW63470   4.099   9.187   9.003
20488SOL    HW163471   4.008   9.219   8.994
20488SOL    HW263472   4.084   9.096   9.034
20489SOL     OW63473   5.432   8.325   8.679
20489SOL    HW163474   5.393   8.243   8.645
20489SOL    HW263475   5.394   8.394   8.621
20490SOL     OW63476   4.927   7.779   7.915
20490SOL    HW163477   4.992   7.706   7.915
20490SOL    HW263478   4.954   7.828   7.996
20491SOL     OW63479   4.320   8.202   8.104
20491SOL    HW163480   4.340   8.297   8.108
20491SOL    HW263481   4.242   8.198   8.046
20492SOL     OW63482   5.489   7.813   9.084
20492SOL    HW163483   5.454   7.825   8.993
20492SOL    HW263484   5.412   7.778   9.130
20493SOL     OW63485   5.460   8.376   8.938
20493SOL    HW163486   5.449   8.472   8.938
20493SOL    HW263487   5.476   8.357   8.844
20494SOL     OW63488   4.586   8.817   7.477
20494SOL    HW163489   4.554   8.839   7.566
20494SOL    HW263490   4.605   8.903   7.436
20495SOL     OW63491   4.363   9.252   8.384
20495SOL    HW163492   4.360   9.347   8.360
20495SOL    HW263493   4.458   9.234   8.392
20496SOL     OW63494   4.605   8.400   8.282
20496SOL    HW163495   4.648   8.328   8.330
20496SOL    HW263496   4.580   8.462   8.354
20497SOL     OW63497   4.821   8.456   7.552
20497SOL    HW163498   4.791   8.508   7.475
20497SOL    HW263499   4.884   8.395   7.510
20498SOL     OW63500   5.596   9.009   8.278
20498SOL    HW163501   5.507   9.018   8.242
20498SOL    HW263502   5.586   8.943   8.348
20499SOL     OW63503   3.967   8.760   9.318
20499SOL    HW163504   3.888   8.707   9.303
20499SOL    HW263505   3.962   8.775   9.415
20500SOL     OW63506   3.804   8.710   8.101
20500SOL    HW163507   3.816   8.656   8.181
20500SOL    HW263508   3.851   8.657   8.035
20501SOL     OW63509   4.400   8.849   9.071
20501SOL    HW163510   4.319   8.800   9.094
20501SOL    HW263511   4.386   8.935   9.115
20502SOL     OW63512   5.554   7.618   8.677
20502SOL    HW163513   5.560   7.522   8.681
20502SOL    HW263514   5.567   7.634   8.582
20503SOL     OW63515   4.176   7.870   7.976
20503SOL    HW163516   4.208   7.794   7.925
20503SOL    HW263517   4.118   7.829   8.043
20504SOL     OW63518   5.447   8.939   8.534
20504SOL    HW163519   5.362   8.927   8.489
20504SOL    HW263520   5.437   8.873   8.605
20505SOL     OW63521   4.047   7.980   8.737
20505SOL    HW163522   4.117   7.938   8.789
20505SOL    HW263523   4.067   7.954   8.645
20506SOL     OW63524   4.549   9.036   8.123
20506SOL    HW163525   4.535   9.064   8.032
20506SOL    HW263526   4.464   8.995   8.146
20507SOL     OW63527   5.156   7.686   8.552
20507SOL    HW163528   5.198   7.602   8.577
20507SOL    HW263529   5.122   7.720   8.636
20508SOL     OW63530   4.744   7.452   8.600
20508SOL    HW163531   4.682   7.384   8.568
20508SOL    HW263532   4.830   7.404   8.595
20509SOL     OW63533   4.514   8.785   7.757
20509SOL    HW163534   4.498   8.690   7.763
20509SOL    HW263535   4.580   8.799   7.827
20510SOL     OW63536   4.314   9.028   8.717
20510SOL    HW163537   4.343   9.110   8.761
20510SOL    HW263538   4.396   8.981   8.703
20511SOL     OW63539   5.047   7.496   7.641
20511SOL    HW163540   5.074   7.427   7.579
20511SOL    HW263541   4.958   7.464   7.667
20512SOL     OW63542   4.992   7.918   8.137
20512SOL    HW163543   4.941   8.000   8.134
20512SOL    HW263544   4.990   7.893   8.231
20513SOL     OW63545   5.332   7.653   8.313
20513SOL    HW163546   5.255   7.660   8.372
20513SOL    HW263547   5.332   7.739   8.268
20514SOL     OW63548   3.767   8.520   7.750
20514SOL    HW163549   3.859   8.505   7.726
20514SOL    HW263550   3.738   8.428   7.766
20515SOL     OW63551   4.602   9.085   7.780
20515SOL    HW163552   4.526   9.081   7.719
20515SOL    HW263553   4.589   9.170   7.827
20516SOL     OW63554   3.950   8.084   9.444
20516SOL    HW163555   3.856   8.081   9.467
20516SOL    HW263556   3.952   8.070   9.349
20517SOL     OW63557   3.963   7.710  10.275
20517SOL    HW163558   3.977   7.700  10.372
20517SOL    HW263559   3.872   7.677  10.267
20518SOL     OW63560   3.724   7.852   9.937
20518SOL    HW163561   3.645   7.869   9.991
20518SOL    HW263562   3.698   7.772   9.890
20519SOL     OW63563   4.288   8.743  10.465
20519SOL    HW163564   4.193   8.733  10.447
20519SOL    HW263565   4.291   8.829  10.510
20520SOL     OW63566   5.287   8.968  10.025
20520SOL    HW163567   5.243   8.944  10.109
20520SOL    HW263568   5.212   8.978   9.963
20521SOL     OW63569   4.851   8.126  10.007
20521SOL    HW163570   4.882   8.217   9.991
20521SOL    HW263571   4.798   8.137  10.087
20522SOL     OW63572   5.489   8.056   9.543
20522SOL    HW163573   5.475   8.048   9.446
20522SOL    HW263574   5.449   7.974   9.576
20523SOL     OW63575   4.486   8.610  10.344
20523SOL    HW163576   4.410   8.653  10.389
20523SOL    HW263577   4.515   8.683  10.287
20524SOL     OW63578   4.601   8.199   0.017
20524SOL    HW163579   4.573   8.276   0.068
20524SOL    HW263580   4.634   8.242  11.037
20525SOL     OW63581   4.418   8.477   9.961
20525SOL    HW163582   4.474   8.458  10.039
20525SOL    HW263583   4.345   8.528   9.999
20526SOL     OW63584   4.033   8.882  10.386
20526SOL    HW163585   3.963   8.840  10.333
20526SOL    HW263586   4.089   8.925  10.318
20527SOL     OW63587   5.200   8.943  10.668
20527SOL    HW163588   5.254   9.025  10.678
20527SOL    HW263589   5.132   8.958  10.735
20528SOL     OW63590   4.171   7.831  10.792
20528SOL    HW163591   4.247   7.770  10.794
20528SOL    HW263592   4.094   7.774  10.805
20529SOL     OW63593   5.349   7.893  10.057
20529SOL    HW163594   5.287   7.929   9.992
20529SOL    HW263595   5.325   7.942  10.137
20530SOL     OW63596   3.944   9.159   9.791
20530SOL    HW163597   3.968   9.239   9.843
20530SOL    HW263598   4.010   9.161   9.720
20531SOL     OW63599   3.972   8.878   9.849
20531SOL    HW163600   3.970   8.975   9.849
20531SOL    HW263601   3.900   8.855   9.908
20532SOL     OW63602   3.988   8.520  10.180
20532SOL    HW163603   3.994   8.441  10.236
20532SOL    HW263604   3.940   8.583  10.237
20533SOL     OW63605   4.330   9.243  10.745
20533SOL    HW163606   4.252   9.225  10.800
20533SOL    HW263607   4.344   9.339  10.757
20534SOL     OW63608   4.294   8.441   9.422
20534SOL    HW163609   4.348   8.487   9.354
20534SOL    HW263610   4.334   8.476   9.504
20535SOL     OW63611   5.314   7.559  10.770
20535SOL    HW163612   5.312   7.651  10.740
20535SOL    HW263613   5.314   7.568  10.866
20536SOL     OW63614   3.843   8.097   9.878
20536SOL    HW163615   3.811   8.007   9.894
20536SOL    HW263616   3.833   8.139   9.966
20537SOL     OW63617   5.575   9.190   9.650
20537SOL    HW163618   5.648   9.175   9.714
20537SOL    HW263619   5.587   9.285   9.630
20538SOL     OW63620   3.781   9.036   9.430
20538SOL    HW163621   3.763   8.943   9.451
20538SOL    HW263622   3.751   9.082   9.510
20539SOL     OW63623   5.430   8.405   9.875
20539SOL    HW163624   5.462   8.372   9.960
20539SOL    HW263625   5.467   8.339   9.813
20540SOL     OW63626   3.836   8.187  10.900
20540SOL    HW163627   3.926   8.207  10.930
20540SOL    HW263628   3.794   8.274  10.904
20541SOL     OW63629   4.311   8.864  10.067
20541SOL    HW163630   4.277   8.772  10.070
20541SOL    HW263631   4.307   8.880   9.971
20542SOL     OW63632   5.024   8.695  10.744
20542SOL    HW163633   5.044   8.631  10.674
20542SOL    HW263634   5.083   8.667  10.816
20543SOL     OW63635   4.561   7.450   9.808
20543SOL    HW163636   4.589   7.544   9.808
20543SOL    HW263637   4.465   7.458   9.819
20544SOL     OW63638   3.929   8.414  10.612
20544SOL    HW163639   4.014   8.376  10.584
20544SOL    HW263640   3.865   8.357  10.567
20545SOL     OW63641   5.225   8.470   9.553
20545SOL    HW163642   5.143   8.418   9.567
20545SOL    HW263643   5.290   8.412   9.594
20546SOL     OW63644   4.933   9.252  10.912
20546SOL    HW163645   4.922   9.319  10.843
20546SOL    HW263646   4.940   9.170  10.861
20547SOL     OW63647   4.059   7.678   0.021
20547SOL    HW163648   4.122   7.747   0.047
20547SOL    HW263649   3.977   7.731   0.014
20548SOL     OW63650   5.199   8.869  10.268
20548SOL    HW163651   5.134   8.890  10.338
20548SOL    HW263652   5.168   8.781  10.237
20549SOL     OW63653   5.386   9.184   9.902
20549SOL    HW163654   5.363   9.141   9.818
20549SOL    HW263655   5.361   9.114   9.965
20550SOL     OW63656   4.302   8.166   9.577
20550SOL    HW163657   4.308   8.252   9.534
20550SOL    HW263658   4.232   8.179   9.643
20551SOL     OW63659   4.999   7.797  10.233
20551SOL    HW163660   4.910   7.760  10.244
20551SOL    HW263661   5.050   7.751  10.302
20552SOL     OW63662   5.302   9.088   9.623
20552SOL    HW163663   5.391   9.126   9.622
20552SOL    HW263664   5.285   9.082   9.527
20553SOL     OW63665   4.538   8.056  10.776
20553SOL    HW163666   4.511   8.025  10.865
20553SOL    HW263667   4.486   7.999  10.716
20554SOL     OW63668   4.687   8.321  10.893
20554SOL    HW163669   4.735   8.253  10.842
20554SOL    HW263670   4.639   8.370  10.825
20555SOL     OW63671   4.701   7.841  10.558
20555SOL    HW163672   4.613   7.859  10.594
20555SOL    HW263673   4.681   7.787  10.481
20556SOL     OW63674   4.764   8.128   9.714
20556SOL    HW163675   4.778   8.147   9.808
20556SOL    HW263676   4.676   8.083   9.717
20557SOL     OW63677   3.821   8.253  10.107
20557SOL    HW163678   3.894   8.257  10.171
20557SOL    HW263679   3.780   8.340  10.118
20558SOL     OW63680   3.833   9.299  10.873
20558SOL    HW163681   3.829   9.247  10.954
20558SOL    HW263682   3.743   9.294  10.840
20559SOL     OW63683   4.600   7.830   9.507
20559SOL    HW163684   4.646   7.885   9.442
20559SOL    HW263685   4.620   7.741   9.476
20560SOL     OW63686   5.089   8.596   9.884
20560SOL    HW163687   5.138   8.569   9.807
20560SOL    HW263688   5.028   8.660   9.844
20561SOL     OW63689   4.279   7.640  10.193
20561SOL    HW163690   4.287   7.655  10.289
20561SOL    HW263691   4.257   7.728  10.160
20562SOL     OW63692   4.722   8.890   9.791
20562SOL    HW163693   4.684   8.950   9.724
20562SOL    HW263694   4.708   8.941   9.872
20563SOL     OW63695   4.067   9.258  10.170
20563SOL    HW163696   4.115   9.175  10.183
20563SOL    HW263697   4.137   9.325  10.181
20564SOL     OW63698   5.535   8.476  10.173
20564SOL    HW163699   5.469   8.525  10.122
20564SOL    HW263700   5.498   8.479  10.262
20565SOL     OW63701   4.959   9.011  10.794
20565SOL    HW163702   4.942   8.946  10.862
20565SOL    HW263703   4.894   8.984  10.727
20566SOL     OW63704   4.035   8.404   9.559
20566SOL    HW163705   4.109   8.431   9.503
20566SOL    HW263706   4.008   8.320   9.517
20567SOL     OW63707   5.191   8.205  10.034
20567SOL    HW163708   5.166   8.142  10.103
20567SOL    HW263709   5.268   8.247  10.073
20568SOL     OW63710   4.212   8.708  11.039
20568SOL    HW163711   4.177   8.728  10.949
20568SOL    HW263712   4.147   8.642  11.067
20569SOL     OW63713   4.834   9.214   9.550
20569SOL    HW163714   4.758   9.177   9.596
20569SOL    HW263715   4.835   9.165   9.466
20570SOL     OW63716   3.899   7.731  10.785
20570SOL    HW163717   3.833   7.797  10.810
20570SOL    HW263718   3.876   7.656  10.841
20571SOL     OW63719   5.342   8.806   9.412
20571SOL    HW163720   5.307   8.895   9.390
20571SOL    HW263721   5.274   8.747   9.374
20572SOL     OW63722   4.179   9.169   9.631
20572SOL    HW163723   4.219   9.228   9.700
20572SOL    HW263724   4.256   9.147   9.577
20573SOL     OW63725   5.103   7.548   9.756
20573SOL    HW163726   5.093   7.526   9.662
20573SOL    HW263727   5.199   7.544   9.768
20574SOL     OW63728   3.958   9.240  10.541
20574SOL    HW163729   4.028   9.184  10.576
20574SOL    HW263730   3.950   9.208  10.450
20575SOL     OW63731   4.666   9.174  10.204
20575SOL    HW163732   4.742   9.119  10.224
20575SOL    HW263733   4.625   9.124  10.131
20576SOL     OW63734   4.109   8.143   9.778
20576SOL    HW163735   4.138   8.050   9.793
20576SOL    HW263736   4.015   8.136   9.800
20577SOL     OW63737   4.341   7.577   9.418
20577SOL    HW163738   4.419   7.524   9.435
20577SOL    HW263739   4.295   7.525   9.349
20578SOL     OW63740   4.493   7.695  11.028
20578SOL    HW163741   4.574   7.681  11.079
20578SOL    HW263742   4.436   7.740  11.092
20579SOL     OW63743   4.622   8.989  10.506
20579SOL    HW163744   4.609   8.955  10.416
20579SOL    HW263745   4.682   8.925  10.547
20580SOL     OW63746   5.063   8.039  10.731
20580SOL    HW163747   5.109   8.011  10.811
20580SOL    HW263748   5.106   8.125  10.713
20581SOL     OW63749   4.547   8.860  10.252
20581SOL    HW163750   4.633   8.850  10.207
20581SOL    HW263751   4.487   8.873  10.177
20582SOL     OW63752   4.669   7.987  10.220
20582SOL    HW163753   4.640   7.976  10.126
20582SOL    HW263754   4.686   7.895  10.243
20583SOL     OW63755   4.284   7.496   9.817
20583SOL    HW163756   4.208   7.508   9.876
20583SOL    HW263757   4.276   7.576   9.761
20584SOL     OW63758   5.160   8.629   9.340
20584SOL    HW163759   5.182   8.565   9.411
20584SOL    HW263760   5.072   8.659   9.367
20585SOL     OW63761   3.997   7.491   9.508
20585SOL    HW163762   4.054   7.568   9.492
20585SOL    HW263763   4.061   7.428   9.547
20586SOL     OW63764   4.664   7.709   9.799
20586SOL    HW163765   4.639   7.760   9.720
20586SOL    HW263766   4.759   7.727   9.805
20587SOL     OW63767   4.818   8.137  10.747
20587SOL    HW163768   4.762   8.059  10.759
20587SOL    HW263769   4.908   8.100  10.750
20588SOL     OW63770   4.966   9.010  10.097
20588SOL    HW163771   4.959   9.076  10.026
20588SOL    HW263772   5.019   9.056  10.163
20589SOL     OW63773   4.195   8.615  10.043
20589SOL    HW163774   4.121   8.583  10.099
20589SOL    HW263775   4.159   8.590   9.955
20590SOL     OW63776   4.989   9.255   9.920
20590SOL    HW163777   5.029   9.328   9.870
20590SOL    HW263778   4.928   9.302   9.979
20591SOL     OW63779   4.767   7.987   9.319
20591SOL    HW163780   4.722   8.070   9.294
20591SOL    HW263781   4.831   8.017   9.385
20592SOL     OW63782   3.799   8.000  10.703
20592SOL    HW163783   3.895   7.996  10.685
20592SOL    HW263784   3.794   8.077  10.763
20593SOL     OW63785   4.293   7.672  10.469
20593SOL    HW163786   4.332   7.601  10.522
20593SOL    HW263787   4.200   7.669  10.497
20594SOL     OW63788   4.600   7.911   9.979
20594SOL    HW163789   4.548   7.959   9.912
20594SOL    HW263790   4.609   7.824   9.939
20595SOL     OW63791   4.786   7.522  10.079
20595SOL    HW163792   4.739   7.517   9.995
20595SOL    HW263793   4.750   7.445  10.127
20596SOL     OW63794   5.143   8.620  10.188
20596SOL    HW163795   5.078   8.553  10.214
20596SOL    HW263796   5.133   8.619  10.091
20597SOL     OW63797   5.218   8.021  10.270
20597SOL    HW163798   5.160   7.945  10.287
20597SOL    HW263799   5.270   8.028  10.352
20598SOL     OW63800   5.554   8.259   9.700
20598SOL    HW163801   5.610   8.206   9.760
20598SOL    HW263802   5.540   8.194   9.627
20599SOL     OW63803   4.223   8.867   9.420
20599SOL    HW163804   4.145   8.853   9.477
20599SOL    HW263805   4.200   8.817   9.341
20600SOL     OW63806   5.420   8.735   9.957
20600SOL    HW163807   5.513   8.743   9.987
20600SOL    HW263808   5.378   8.818   9.988
20601SOL     OW63809   5.122   8.042   9.371
20601SOL    HW163810   5.069   8.015   9.449
20601SOL    HW263811   5.207   8.001   9.390
20602SOL     OW63812   4.242   7.695   9.638
20602SOL    HW163813   4.283   7.656   9.558
20602SOL    HW263814   4.214   7.781   9.600
20603SOL     OW63815   5.485   8.672  10.868
20603SOL    HW163816   5.578   8.652  10.885
20603SOL    HW263817   5.478   8.764  10.899
20604SOL     OW63818   4.777   8.829  10.689
20604SOL    HW163819   4.698   8.780  10.715
20604SOL    HW263820   4.849   8.765  10.707
20605SOL     OW63821   4.833   8.683  10.415
20605SOL    HW163822   4.744   8.681  10.450
20605SOL    HW263823   4.818   8.724  10.328
20606SOL     OW63824   5.350   8.546  10.380
20606SOL    HW163825   5.360   8.608  10.456
20606SOL    HW263826   5.279   8.590  10.331
20607SOL     OW63827   4.636   7.563  10.687
20607SOL    HW163828   4.667   7.532  10.600
20607SOL    HW263829   4.717   7.599  10.727
20608SOL     OW63830   4.425   8.513   9.658
20608SOL    HW163831   4.417   8.496   9.753
20608SOL    HW263832   4.502   8.457   9.635
20609SOL     OW63833   4.156   8.260  10.589
20609SOL    HW163834   4.227   8.258  10.656
20609SOL    HW263835   4.117   8.171  10.598
20610SOL     OW63836   4.978   7.822  10.577
20610SOL    HW163837   5.004   7.905  10.620
20610SOL    HW263838   4.887   7.839  10.547
20611SOL     OW63839   3.796   9.015  10.640
20611SOL    HW163840   3.788   9.099  10.594
20611SOL    HW263841   3.893   9.007  10.653
20612SOL     OW63842   4.101   8.549   9.808
20612SOL    HW163843   4.134   8.618   9.749
20612SOL    HW263844   4.080   8.477   9.746
20613SOL     OW63845   4.260   7.988  10.157
20613SOL    HW163846   4.287   8.055  10.090
20613SOL    HW263847   4.324   8.002  10.228
20614SOL     OW63848   4.957   8.782   9.707
20614SOL    HW163849   5.002   8.858   9.745
20614SOL    HW263850   4.865   8.801   9.731
20615SOL     OW63851   5.017   8.909  10.469
20615SOL    HW163852   5.076   8.904  10.547
20615SOL    HW263853   4.952   8.839  10.484
20616SOL     OW63854   5.312   8.063   9.798
20616SOL    HW163855   5.251   8.119   9.849
20616SOL    HW263856   5.331   8.118   9.721
20617SOL     OW63857   4.065   8.952  10.635
20617SOL    HW163858   4.048   8.923  10.542
20617SOL    HW263859   4.161   8.970  10.632
20618SOL     OW63860   4.167   8.167  10.931
20618SOL    HW163861   4.235   8.209  10.874
20618SOL    HW263862   4.172   8.075  10.905
20619SOL     OW63863   5.335   8.208  10.995
20619SOL    HW163864   5.261   8.261  10.965
20619SOL    HW263865   5.408   8.253  10.951
20620SOL     OW63866   4.276   8.335  10.360
20620SOL    HW163867   4.327   8.417  10.367
20620SOL    HW263868   4.243   8.321  10.450
20621SOL     OW63869   5.077   8.314  10.333
20621SOL    HW163870   4.995   8.283  10.290
20621SOL    HW263871   5.122   8.231  10.352
20622SOL     OW63872   4.941   7.970   9.568
20622SOL    HW163873   4.946   7.897   9.633
20622SOL    HW263874   4.881   8.031   9.615
20623SOL     OW63875   4.006   7.660  10.537
20623SOL    HW163876   3.969   7.692  10.622
20623SOL    HW263877   3.988   7.564  10.544
20624SOL     OW63878   3.788   8.732  10.587
20624SOL    HW163879   3.809   8.682  10.668
20624SOL    HW263880   3.771   8.821  10.619
20625SOL     OW63881   4.434   8.093  10.349
20625SOL    HW163882   4.513   8.091  10.291
20625SOL    HW263883   4.389   8.176  10.324
20626SOL     OW63884   4.018   7.514   9.913
20626SOL    HW163885   4.000   7.607   9.935
20626SOL    HW263886   4.035   7.476  10.001
20627SOL     OW63887   5.324   7.821   9.681
20627SOL    HW163888   5.360   7.761   9.748
20627SOL    HW263889   5.314   7.904   9.731
20628SOL     OW63890   4.775   8.220  10.275
20628SOL    HW163891   4.758   8.238  10.369
20628SOL    HW263892   4.748   8.126  10.268
20629SOL     OW63893   4.717   8.994  10.971
20629SOL    HW163894   4.703   9.069  10.910
20629SOL    HW263895   4.680   8.923  10.919
20630SOL     OW63896   5.573   8.946  10.899
20630SOL    HW163897   5.599   8.965  10.807
20630SOL    HW263898   5.651   8.974  10.950
20631SOL     OW63899   4.105   8.371  11.079
20631SOL    HW163900   4.187   8.373   0.029
20631SOL    HW263901   4.119   8.292  11.022
20632SOL     OW63902   5.234   7.710   9.444
20632SOL    HW163903   5.160   7.654   9.472
20632SOL    HW263904   5.271   7.742   9.528
20633SOL     OW63905   5.022   8.291   9.335
20633SOL    HW163906   5.068   8.205   9.345
20633SOL    HW263907   5.047   8.316   9.244
20634SOL     OW63908   4.792   8.811  10.163
20634SOL    HW163909   4.793   8.741  10.095
20634SOL    HW263910   4.862   8.873  10.134
20635SOL     OW63911   4.010   8.267  10.314
20635SOL    HW163912   4.106   8.285  10.317
20635SOL    HW263913   4.006   8.171  10.327
20636SOL     OW63914   4.039   7.969  10.308
20636SOL    HW163915   4.011   7.879  10.281
20636SOL    HW263916   4.112   7.985  10.244
20637SOL     OW63917   4.883   7.656  10.773
20637SOL    HW163918   4.914   7.717  10.840
20637SOL    HW263919   4.916   7.696  10.691
20638SOL     OW63920   3.726   8.762   9.497
20638SOL    HW163921   3.632   8.775   9.467
20638SOL    HW263922   3.722   8.675   9.540
20639SOL     OW63923   3.817   9.225  10.249
20639SOL    HW163924   3.788   9.149  10.194
20639SOL    HW263925   3.909   9.241  10.218
20640SOL     OW63926   4.212   9.030  10.254
20640SOL    HW163927   4.286   9.088  10.282
20640SOL    HW263928   4.255   8.973  10.187
20641SOL     OW63929   4.704   8.252  10.543
20641SOL    HW163930   4.761   8.208  10.609
20641SOL    HW263931   4.619   8.211  10.563
20642SOL     OW63932   3.762   7.964  10.427
20642SOL    HW163933   3.848   7.968  10.383
20642SOL    HW263934   3.786   7.968  10.521
20643SOL     OW63935   4.524   8.015   9.697
20643SOL    HW163936   4.537   7.953   9.622
20643SOL    HW263937   4.449   8.069   9.666
20644SOL     OW63938   5.379   8.063  10.495
20644SOL    HW163939   5.366   7.995  10.562
20644SOL    HW263940   5.461   8.032  10.452
20645SOL     OW63941   3.963   8.995  11.032
20645SOL    HW163942   3.903   9.022   0.004
20645SOL    HW263943   4.012   8.923  11.071
20646SOL     OW63944   4.414   7.925  10.578
20646SOL    HW163945   4.370   7.847  10.542
20646SOL    HW263946   4.410   7.989  10.504
20647SOL     OW63947   4.658   9.140  10.753
20647SOL    HW163948   4.643   9.106  10.664
20647SOL    HW263949   4.630   9.233  10.748
20648SOL     OW63950   4.166   7.923   9.502
20648SOL    HW163951   4.227   7.996   9.521
20648SOL    HW263952   4.082   7.972   9.490
20649SOL     OW63953   3.885   8.593  10.797
20649SOL    HW163954   3.877   8.536  10.877
20649SOL    HW263955   3.907   8.528  10.727
20650SOL     OW63956   5.029   8.508  10.538
20650SOL    HW163957   5.055   8.446  10.468
20650SOL    HW263958   4.954   8.555  10.498
20651SOL     OW63959   5.029   8.305   9.607
20651SOL    HW163960   4.947   8.274   9.648
20651SOL    HW263961   5.008   8.302   9.512
20652SOL     OW63962   5.483   9.200  10.441
20652SOL    HW163963   5.554   9.220  10.376
20652SOL    HW263964   5.476   9.102  10.434
20653SOL     OW63965   4.981   9.193  10.469
20653SOL    HW163966   5.066   9.212  10.427
20653SOL    HW263967   4.987   9.098  10.483
20654SOL     OW63968   3.839   8.701  10.326
20654SOL    HW163969   3.830   8.714  10.423
20654SOL    HW263970   3.750   8.672  10.303
20655SOL     OW63971   5.467   7.586   9.844
20655SOL    HW163972   5.500   7.570   9.755
20655SOL    HW263973   5.443   7.497   9.877
20656SOL     OW63974   5.103   9.029   9.805
20656SOL    HW163975   5.157   9.054   9.727
20656SOL    HW263976   5.049   9.109   9.820
20657SOL     OW63977   4.968   8.368   9.985
20657SOL    HW163978   5.048   8.315  10.004
20657SOL    HW263979   5.006   8.443   9.937
20658SOL     OW63980   4.521   8.703  10.738
20658SOL    HW163981   4.499   8.745  10.823
20658SOL    HW263982   4.440   8.718  10.687
20659SOL     OW63983   4.394   9.065   9.468
20659SOL    HW163984   4.410   9.083   9.374
20659SOL    HW263985   4.335   8.987   9.460
20660SOL     OW63986   5.353   9.168  10.689
20660SOL    HW163987   5.399   9.192  10.606
20660SOL    HW263988   5.341   9.254  10.732
20661SOL     OW63989   5.580   7.624  10.259
20661SOL    HW163990   5.596   7.528  10.247
20661SOL    HW263991   5.485   7.633  10.233
20662SOL     OW63992   3.970   7.767  10.002
20662SOL    HW163993   3.882   7.807   9.988
20662SOL    HW263994   3.974   7.758  10.099
20663SOL     OW63995   4.910   9.075   9.328
20663SOL    HW163996   4.918   8.981   9.351
20663SOL    HW263997   4.849   9.074   9.252
20664SOL     OW63998   4.543   8.435  10.698
20664SOL    HW163999   4.592   8.422  10.616
20664SOL    HW264000   4.553   8.531  10.714
20665SOL     OW64001   4.630   8.359   9.588
20665SOL    HW164002   4.701   8.393   9.531
20665SOL    HW264003   4.670   8.281   9.628
20666SOL     OW64004   5.277   9.061   9.344
20666SOL    HW164005   5.184   9.085   9.340
20666SOL    HW264006   5.303   9.065   9.250
20667SOL     OW64007   4.095   8.747  10.806
20667SOL    HW164008   4.070   8.816  10.743
20667SOL    HW264009   4.016   8.689  10.804
20668SOL     OW64010   5.347   8.747  10.577
20668SOL    HW164011   5.399   8.723  10.655
20668SOL    HW264012   5.285   8.813  10.616
20669SOL     OW64013   4.771   8.569  10.036
20669SOL    HW164014   4.691   8.522  10.065
20669SOL    HW264015   4.831   8.495  10.018
20670SOL     OW64016   4.749   7.685  10.297
20670SOL    HW164017   4.749   7.638  10.211
20670SOL    HW264018   4.751   7.609  10.359
20671SOL     OW64019   4.326   8.918   9.801
20671SOL    HW164020   4.390   8.891   9.733
20671SOL    HW264021   4.268   8.977   9.752
20672SOL     OW64022   5.427   7.838  10.698
20672SOL    HW164023   5.498   7.904  10.702
20672SOL    HW264024   5.464   7.775  10.633
20673SOL     OW64025   3.975   8.832   9.583
20673SOL    HW164026   3.878   8.822   9.574
20673SOL    HW264027   3.984   8.843   9.680
20674SOL     OW64028   3.856   8.450  11.016
20674SOL    HW164029   3.789   8.434  11.083
20674SOL    HW264030   3.940   8.422  11.060
20675SOL     OW64031   4.392   7.640  10.779
20675SOL    HW164032   4.478   7.621  10.738
20675SOL    HW264033   4.419   7.665  10.869
20676SOL     OW64034   3.836   7.785   9.306
20676SOL    HW164035   3.741   7.795   9.312
20676SOL    HW264036   3.860   7.859   9.245
20677SOL     OW64037   5.168   8.290  10.716
20677SOL    HW164038   5.113   8.360  10.679
20677SOL    HW264039   5.257   8.317  10.686
20678SOL     OW64040   3.766   7.609   9.609
20678SOL    HW164041   3.770   7.701   9.578
20678SOL    HW264042   3.844   7.570   9.566
20679SOL     OW64043   4.923   8.808   9.425
20679SOL    HW164044   4.828   8.787   9.429
20679SOL    HW264045   4.947   8.808   9.520
20680SOL     OW64046   4.359   8.256  10.768
20680SOL    HW164047   4.418   8.332  10.747
20680SOL    HW264048   4.424   8.184  10.776
20681SOL     OW64049   5.246   9.208  10.295
20681SOL    HW164050   5.272   9.259  10.217
20681SOL    HW264051   5.328   9.205  10.348
20682SOL     OW64052   4.450   7.994  11.030
20682SOL    HW164053   4.488   8.070  11.078
20682SOL    HW264054   4.513   7.923  11.049
20683SOL     OW64055   4.096   9.173  10.873
20683SOL    HW164056   4.021   9.232  10.854
20683SOL    HW264057   4.055   9.108  10.934
20684SOL     OW64058   5.406   8.340  10.567
20684SOL    HW164059   5.409   8.248  10.534
20684SOL    HW264060   5.375   8.391  10.491
20685SOL     OW64061   4.935   7.781   9.778
20685SOL    HW164062   4.995   7.704   9.772
20685SOL    HW264063   4.972   7.829   9.855
20686SOL     OW64064   4.325   8.189   9.971
20686SOL    HW164065   4.360   8.277   9.950
20686SOL    HW264066   4.246   8.185   9.914
20687SOL     OW64067   5.488   7.769  10.949
20687SOL    HW164068   5.453   7.792  10.861
20687SOL    HW264069   5.408   7.767  11.004
20688SOL     OW64070   5.474   8.394  10.829
20688SOL    HW164071   5.470   8.491  10.839
20688SOL    HW264072   5.462   8.383  10.733
20689SOL     OW64073   4.592   8.813   9.353
20689SOL    HW164074   4.548   8.832   9.438
20689SOL    HW264075   4.613   8.900   9.317
20690SOL     OW64076   4.392   9.231  10.269
20690SOL    HW164077   4.367   9.318  10.234
20690SOL    HW264078   4.480   9.217  10.229
20691SOL     OW64079   4.595   8.405  10.166
20691SOL    HW164080   4.644   8.332  10.208
20691SOL    HW264081   4.581   8.467  10.239
20692SOL     OW64082   4.815   8.442   9.414
20692SOL    HW164083   4.786   8.502   9.342
20692SOL    HW264084   4.877   8.384   9.366
20693SOL     OW64085   5.559   8.988  10.171
20693SOL    HW164086   5.475   9.002  10.126
20693SOL    HW264087   5.531   8.952  10.257
20694SOL     OW64088   3.813   8.699   9.988
20694SOL    HW164089   3.807   8.636  10.060
20694SOL    HW264090   3.895   8.671   9.944
20695SOL     OW64091   4.417   8.865  10.945
20695SOL    HW164092   4.345   8.809  10.980
20695SOL    HW264093   4.369   8.945  10.921
20696SOL     OW64094   5.519   7.654  10.526
20696SOL    HW164095   5.544   7.566  10.554
20696SOL    HW264096   5.543   7.652  10.431
20697SOL     OW64097   4.167   7.885   9.836
20697SOL    HW164098   4.201   7.811   9.785
20697SOL    HW264099   4.114   7.843   9.906
20698SOL     OW64100   5.435   8.936  10.405
20698SOL    HW164101   5.352   8.911  10.361
20698SOL    HW264102   5.432   8.876  10.482
20699SOL     OW64103   4.072   7.994  10.596
20699SOL    HW164104   4.124   7.933  10.652
20699SOL    HW264105   4.076   7.953  10.508
20700SOL     OW64106   4.555   9.036   9.991
20700SOL    HW164107   4.561   9.117   9.935
20700SOL    HW264108   4.464   9.008   9.979
20701SOL     OW64109   5.152   7.691  10.427
20701SOL    HW164110   5.194   7.618  10.475
20701SOL    HW264111   5.093   7.731  10.494
20702SOL     OW64112   4.738   7.459  10.459
20702SOL    HW164113   4.684   7.387  10.425
20702SOL    HW264114   4.828   7.417  10.462
20703SOL     OW64115   4.510   8.791   9.623
20703SOL    HW164116   4.476   8.700   9.623
20703SOL    HW264117   4.584   8.786   9.684
20704SOL     OW64118   4.333   9.004  10.606
20704SOL    HW164119   4.340   9.090  10.652
20704SOL    HW264120   4.413   9.007  10.551
20705SOL     OW64121   5.041   7.506   9.482
20705SOL    HW164122   5.071   7.432   9.428
20705SOL    HW264123   4.958   7.470   9.520
20706SOL     OW64124   5.032   7.922   9.993
20706SOL    HW164125   4.963   7.992   9.992
20706SOL    HW264126   5.017   7.880  10.080
20707SOL     OW64127   5.326   7.651  10.193
20707SOL    HW164128   5.248   7.667  10.249
20707SOL    HW264129   5.326   7.728  10.133
20708SOL     OW64130   3.760   8.505   9.626
20708SOL    HW164131   3.853   8.502   9.600
20708SOL    HW264132   3.744   8.412   9.650
20709SOL     OW64133   4.614   9.076   9.625
20709SOL    HW164134   4.533   9.068   9.571
20709SOL    HW264135   4.594   9.149   9.687
20710SOL     OW64136   3.969   9.969   0.147
20710SOL    HW164137   3.885   9.930   0.174
20710SOL    HW264138   3.977   9.944   0.055
20711SOL     OW64139   3.942   9.599   1.001
20711SOL    HW164140   3.969   9.571   1.090
20711SOL    HW264141   3.857   9.551   0.989
20712SOL     OW64142   3.730   9.716   0.639
20712SOL    HW164143   3.647   9.736   0.687
20712SOL    HW264144   3.704   9.639   0.588
20713SOL     OW64145   4.312  10.585   1.192
20713SOL    HW164146   4.229  10.576   1.144
20713SOL    HW264147   4.307  10.678   1.220
20714SOL     OW64148   5.290  10.805   0.706
20714SOL    HW164149   5.235  10.813   0.786
20714SOL    HW264150   5.227  10.820   0.634
20715SOL     OW64151   4.854   9.994   0.713
20715SOL    HW164152   4.934  10.012   0.763
20715SOL    HW264153   4.785   9.998   0.781
20716SOL     OW64154   5.497   9.932   0.243
20716SOL    HW164155   5.474   9.951   0.151
20716SOL    HW264156   5.454   9.848   0.258
20717SOL     OW64157   4.465  10.455   1.011
20717SOL    HW164158   4.411  10.492   1.083
20717SOL    HW264159   4.505  10.536   0.976
20718SOL     OW64160   4.598  10.094   1.811
20718SOL    HW164161   4.582  10.161   1.878
20718SOL    HW264162   4.627  10.146   1.733
20719SOL     OW64163   4.423  10.312   0.640
20719SOL    HW164164   4.481  10.299   0.716
20719SOL    HW264165   4.346  10.359   0.680
20720SOL     OW64166   4.442  10.446   1.791
20720SOL    HW164167   4.473  10.532   1.826
20720SOL    HW264168   4.358  10.471   1.749
20721SOL     OW64169   4.054  10.749   1.076
20721SOL    HW164170   3.979  10.720   1.021
20721SOL    HW264171   4.109  10.799   1.013
20722SOL     OW64172   5.181  10.802   1.375
20722SOL    HW164173   5.202  10.894   1.395
20722SOL    HW264174   5.128  10.779   1.453
20723SOL     OW64175   4.159   9.702   1.538
20723SOL    HW164176   4.234   9.644   1.518
20723SOL    HW264177   4.082   9.651   1.508
20724SOL     OW64178   5.333   9.769   0.738
20724SOL    HW164179   5.248   9.792   0.697
20724SOL    HW264180   5.343   9.839   0.804
20725SOL     OW64181   4.866  10.652   1.670
20725SOL    HW164182   4.902  10.658   1.760
20725SOL    HW264183   4.818  10.567   1.676
20726SOL     OW64184   3.994  10.749   0.518
20726SOL    HW164185   3.981  10.844   0.508
20726SOL    HW264186   3.919  10.722   0.574
20727SOL     OW64187   3.993  10.398   0.899
20727SOL    HW164188   3.983  10.321   0.956
20727SOL    HW264189   3.941  10.466   0.946
20728SOL     OW64190   4.317  10.281   0.158
20728SOL    HW164191   4.346  10.346   0.093
20728SOL    HW264192   4.354  10.318   0.241
20729SOL     OW64193   5.341   9.420   1.495
20729SOL    HW164194   5.355   9.494   1.435
20729SOL    HW264195   5.345   9.463   1.582
20730SOL     OW64196   3.855   9.962   0.560
20730SOL    HW164197   3.818   9.874   0.580
20730SOL    HW264198   3.845  10.011   0.644
20731SOL     OW64199   3.769  10.955   0.103
20731SOL    HW164200   3.742  10.864   0.131
20731SOL    HW264201   3.775  11.000   0.188
20732SOL     OW64202   5.406  10.211   0.631
20732SOL    HW164203   5.490  10.170   0.605
20732SOL    HW264204   5.397  10.278   0.561
20733SOL     OW64205   5.373  10.421   0.439
20733SOL    HW164206   5.455  10.428   0.387
20733SOL    HW264207   5.390  10.481   0.514
20734SOL     OW64208   3.846  10.049   1.580
20734SOL    HW164209   3.942  10.065   1.585
20734SOL    HW264210   3.811  10.130   1.619
20735SOL     OW64211   4.308  10.704   0.752
20735SOL    HW164212   4.278  10.611   0.754
20735SOL    HW264213   4.289  10.727   0.659
20736SOL     OW64214   5.026  10.541   1.424
20736SOL    HW164215   5.058  10.471   1.364
20736SOL    HW264216   5.079  10.524   1.504
20737SOL     OW64217   4.565   9.305   0.485
20737SOL    HW164218   4.588   9.400   0.483
20737SOL    HW264219   4.468   9.310   0.497
20738SOL     OW64220   3.900  10.291   1.243
20738SOL    HW164221   3.989  10.249   1.241
20738SOL    HW264222   3.843  10.221   1.210
20739SOL     OW64223   5.256  10.321   0.208
20739SOL    HW164224   5.190  10.260   0.242
20739SOL    HW264225   5.301  10.351   0.289
20740SOL     OW64226   4.907  11.098   1.636
20740SOL    HW164227   4.923   0.070   1.575
20740SOL    HW264228   4.930  11.021   1.581
20741SOL     OW64229   4.054   9.547   1.804
20741SOL    HW164230   4.111   9.625   1.801
20741SOL    HW264231   3.976   9.582   1.850
20742SOL     OW64232   5.188  10.748   0.961
20742SOL    HW164233   5.123  10.755   1.033
20742SOL    HW264234   5.172  10.656   0.931
20743SOL     OW64235   4.309  10.013   0.269
20743SOL    HW164236   4.318  10.101   0.229
20743SOL    HW264237   4.247  10.028   0.343
20744SOL     OW64238   4.986   9.641   0.905
20744SOL    HW164239   4.897   9.611   0.930
20744SOL    HW264240   5.042   9.598   0.973
20745SOL     OW64241   5.290  10.961   0.328
20745SOL    HW164242   5.369  11.016   0.332
20745SOL    HW264243   5.269  10.962   0.233
20746SOL     OW64244   4.542   9.927   1.455
20746SOL    HW164245   4.519   9.897   1.546
20746SOL    HW264246   4.481   9.873   1.402
20747SOL     OW64247   5.116   9.794   1.667
20747SOL    HW164248   5.125   9.849   1.747
20747SOL    HW264249   5.175   9.718   1.688
20748SOL     OW64250   4.696  10.211   1.586
20748SOL    HW164251   4.734  10.126   1.554
20748SOL    HW264252   4.648  10.241   1.506
20749SOL     OW64253   4.712   9.707   1.246
20749SOL    HW164254   4.631   9.723   1.295
20749SOL    HW264255   4.686   9.645   1.178
20750SOL     OW64256   4.765   9.991   0.410
20750SOL    HW164257   4.772  10.005   0.506
20750SOL    HW264258   4.677   9.946   0.404
20751SOL     OW64259   3.843  10.128   0.773
20751SOL    HW164260   3.909  10.124   0.845
20751SOL    HW264261   3.790  10.204   0.798
20752SOL     OW64262   3.798   0.031   1.572
20752SOL    HW164263   3.837   0.011   1.659
20752SOL    HW264264   3.706   0.052   1.594
20753SOL     OW64265   4.612   9.699   0.206
20753SOL    HW164266   4.663   9.748   0.138
20753SOL    HW264267   4.624   9.607   0.177
20754SOL     OW64268   5.451   9.889   1.845
20754SOL    HW164269   5.409   9.965   1.799
20754SOL    HW264270   5.480   9.836   1.770
20755SOL     OW64271   5.104  10.458   0.544
20755SOL    HW164272   5.193  10.469   0.505
20755SOL    HW264273   5.052  10.525   0.496
20756SOL     OW64274   4.269   9.513   0.889
20756SOL    HW164275   4.275   9.532   0.985
20756SOL    HW264276   4.272   9.601   0.849
20757SOL     OW64277   4.703  10.741   0.482
20757SOL    HW164278   4.641  10.794   0.429
20757SOL    HW264279   4.679  10.771   0.571
20758SOL     OW64280   4.062   0.012   0.902
20758SOL    HW164281   4.118  11.034   0.912
20758SOL    HW264282   4.127   0.084   0.894
20759SOL     OW64283   5.520  10.394   0.896
20759SOL    HW164284   5.474  10.370   0.814
20759SOL    HW264285   5.452  10.379   0.965
20760SOL     OW64286   4.931  10.866   1.502
20760SOL    HW164287   4.928  10.782   1.551
20760SOL    HW264288   4.880  10.844   1.423
20761SOL     OW64289   4.038  10.265   0.261
20761SOL    HW164290   4.124  10.277   0.218
20761SOL    HW264291   4.008  10.180   0.226
20762SOL     OW64292   5.172  10.092   0.715
20762SOL    HW164293   5.185  10.035   0.792
20762SOL    HW264294   5.263  10.129   0.705
20763SOL     OW64295   4.206  10.555   1.715
20763SOL    HW164296   4.151  10.567   1.634
20763SOL    HW264297   4.138  10.565   1.784
20764SOL     OW64298   4.796  11.050   0.216
20764SOL    HW164299   4.770  10.990   0.286
20764SOL    HW264300   4.845  10.993   0.155
20765SOL     OW64301   3.897   9.601   1.501
20765SOL    HW164302   3.818   9.648   1.532
20765SOL    HW264303   3.887   9.515   1.545
20766SOL     OW64304   5.360  10.709   0.082
20766SOL    HW164305   5.309  10.792   0.075
20766SOL    HW264306   5.303  10.644   0.037
20767SOL     OW64307   5.119   9.408   0.448
20767SOL    HW164308   5.125   9.370   0.360
20767SOL    HW264309   5.212   9.431   0.467
20768SOL     OW64310   4.135   9.982   0.486
20768SOL    HW164311   4.149   9.886   0.498
20768SOL    HW264312   4.041   9.989   0.511
20769SOL     OW64313   5.257   9.575   1.720
20769SOL    HW164314   5.255   9.576   1.819
20769SOL    HW264315   5.201   9.499   1.701
20770SOL     OW64316   4.347   9.407   0.107
20770SOL    HW164317   4.441   9.396   0.127
20770SOL    HW264318   4.342   9.391   0.012
20771SOL     OW64319   4.496   9.574   1.730
20771SOL    HW164320   4.574   9.516   1.739
20771SOL    HW264321   4.444   9.551   1.808
20772SOL     OW64322   4.616  10.836   1.173
20772SOL    HW164323   4.608  10.791   1.087
20772SOL    HW264324   4.679  10.780   1.222
20773SOL     OW64325   5.057   9.905   1.427
20773SOL    HW164326   5.093   9.871   1.511
20773SOL    HW264327   5.113   9.983   1.410
20774SOL     OW64328   4.557  10.706   0.941
20774SOL    HW164329   4.638  10.697   0.889
20774SOL    HW264330   4.489  10.714   0.871
20775SOL     OW64331   4.670   9.822   0.901
20775SOL    HW164332   4.642   9.803   0.809
20775SOL    HW264333   4.695   9.734   0.933
20776SOL     OW64334   4.303   9.350   0.502
20776SOL    HW164335   4.224   9.360   0.559
20776SOL    HW264336   4.289   9.426   0.442
20777SOL     OW64337   5.173  10.509   0.009
20777SOL    HW164338   5.222  10.446   0.064
20777SOL    HW264339   5.086  10.509   0.050
20778SOL     OW64340   3.998   9.376   0.223
20778SOL    HW164341   4.030   9.427   0.147
20778SOL    HW264342   4.072   9.313   0.237
20779SOL     OW64343   4.665   9.569   0.468
20779SOL    HW164344   4.651   9.616   0.385
20779SOL    HW264345   4.761   9.578   0.480
20780SOL     OW64346   4.812   9.996   1.473
20780SOL    HW164347   4.750   9.922   1.472
20780SOL    HW264348   4.900   9.954   1.467
20781SOL     OW64349   4.962  10.873   0.799
20781SOL    HW164350   4.917  10.951   0.766
20781SOL    HW264351   5.026  10.910   0.860
20782SOL     OW64352   4.200  10.443   0.730
20782SOL    HW164353   4.126  10.424   0.791
20782SOL    HW264354   4.155  10.437   0.642
20783SOL     OW64355   4.758   9.833   0.032
20783SOL    HW164356   4.720   9.922   0.026
20783SOL    HW264357   4.850   9.851   0.054
20784SOL     OW64358   3.791   9.861   1.397
20784SOL    HW164359   3.886   9.845   1.379
20784SOL    HW264360   3.794   9.942   1.452
20785SOL     OW64361   4.288   9.542   1.166
20785SOL    HW164362   4.332   9.468   1.211
20785SOL    HW264363   4.197   9.534   1.201
20786SOL     OW64364   4.601   9.762   0.652
20786SOL    HW164365   4.540   9.812   0.595
20786SOL    HW264366   4.619   9.685   0.596
20787SOL     OW64367   4.726   9.395   0.773
20787SOL    HW164368   4.689   9.382   0.685
20787SOL    HW264369   4.708   9.310   0.817
20788SOL     OW64370   5.156  10.503   0.883
20788SOL    HW164371   5.090  10.433   0.884
20788SOL    HW264372   5.177  10.513   0.789
20789SOL     OW64373   5.189   9.899   0.984
20789SOL    HW164374   5.135   9.823   1.007
20789SOL    HW264375   5.259   9.898   1.052
20790SOL     OW64376   5.578  10.150   0.390
20790SOL    HW164377   5.630  10.088   0.444
20790SOL    HW264378   5.552  10.093   0.316
20791SOL     OW64379   4.214  10.747   0.144
20791SOL    HW164380   4.143  10.709   0.201
20791SOL    HW264381   4.206  10.692   0.064
20792SOL     OW64382   5.391  10.556   0.670
20792SOL    HW164383   5.487  10.574   0.677
20792SOL    HW264384   5.353  10.646   0.678
20793SOL     OW64385   5.105   9.918   0.087
20793SOL    HW164386   5.066   9.875   0.166
20793SOL    HW264387   5.171   9.854   0.059
20794SOL     OW64388   4.239   9.533   0.319
20794SOL    HW164389   4.265   9.488   0.236
20794SOL    HW264390   4.218   9.622   0.286
20795SOL     OW64391   5.464  10.523   1.599
20795SOL    HW164392   5.556  10.497   1.582
20795SOL    HW264393   5.472  10.619   1.607
20796SOL     OW64394   4.792  10.675   1.338
20796SOL    HW164395   4.709  10.638   1.374
20796SOL    HW264396   4.860  10.621   1.383
20797SOL     OW64397   5.308  10.969   1.642
20797SOL    HW164398   5.320  11.040   1.578
20797SOL    HW264399   5.393  10.920   1.635
20798SOL     OW64400   4.832  10.508   1.113
20798SOL    HW164401   4.782  10.556   1.180
20798SOL    HW264402   4.813  10.558   1.032
20799SOL     OW64403   5.318  10.391   1.079
20799SOL    HW164404   5.326  10.454   1.153
20799SOL    HW264405   5.265  10.443   1.016
20800SOL     OW64406   4.646   9.407   1.404
20800SOL    HW164407   4.676   9.387   1.314
20800SOL    HW264408   4.725   9.449   1.443
20801SOL     OW64409   4.723  10.435   1.739
20801SOL    HW164410   4.628  10.451   1.757
20801SOL    HW264411   4.719  10.357   1.680
20802SOL     OW64412   4.455  10.379   0.374
20802SOL    HW164413   4.440  10.352   0.466
20802SOL    HW264414   4.542  10.339   0.353
20803SOL     OW64415   4.128  10.128   1.268
20803SOL    HW164416   4.206  10.123   1.326
20803SOL    HW264417   4.093  10.038   1.272
20804SOL     OW64418   5.009   9.702   1.256
20804SOL    HW164419   5.027   9.777   1.316
20804SOL    HW264420   4.914   9.714   1.237
20805SOL     OW64421   3.778  10.875   1.328
20805SOL    HW164422   3.739  10.947   1.275
20805SOL    HW264423   3.872  10.898   1.330
20806SOL     OW64424   4.083  10.412   0.489
20806SOL    HW164425   4.070  10.494   0.438
20806SOL    HW264426   4.063  10.344   0.422
20807SOL     OW64427   4.268   9.836   0.870
20807SOL    HW164428   4.294   9.898   0.799
20807SOL    HW264429   4.327   9.862   0.943
20808SOL     OW64430   4.958  10.650   0.411
20808SOL    HW164431   5.013  10.727   0.437
20808SOL    HW264432   4.868  10.683   0.430
20809SOL     OW64433   5.016  10.764   1.165
20809SOL    HW164434   5.075  10.785   1.240
20809SOL    HW264435   4.964  10.690   1.199
20810SOL     OW64436   5.296   9.936   0.474
20810SOL    HW164437   5.260  10.002   0.535
20810SOL    HW264438   5.345   9.989   0.411
20811SOL     OW64439   4.055  10.828   1.332
20811SOL    HW164440   4.049  10.798   1.239
20811SOL    HW264441   4.149  10.849   1.336
20812SOL     OW64442   4.145  10.046   1.611
20812SOL    HW164443   4.210  10.087   1.552
20812SOL    HW264444   4.172   9.953   1.608
20813SOL     OW64445   5.357  10.080   1.688
20813SOL    HW164446   5.266  10.113   1.683
20813SOL    HW264447   5.397  10.123   1.609
20814SOL     OW64448   4.715   9.418   1.757
20814SOL    HW164449   4.781   9.487   1.744
20814SOL    HW264450   4.761   9.342   1.717
20815SOL     OW64451   4.222   9.334   1.753
20815SOL    HW164452   4.181   9.275   1.688
20815SOL    HW264453   4.156   9.406   1.760
20816SOL     OW64454   4.342  10.195   1.047
20816SOL    HW164455   4.358  10.291   1.041
20816SOL    HW264456   4.271  10.188   1.112
20817SOL     OW64457   5.081  10.192   0.999
20817SOL    HW164458   4.999  10.141   1.000
20817SOL    HW264459   5.145  10.126   1.029
20818SOL     OW64460   4.961   9.823   0.289
20818SOL    HW164461   4.964   9.749   0.353
20818SOL    HW264462   4.892   9.879   0.328
20819SOL     OW64463   4.029   9.519   1.248
20819SOL    HW164464   3.978   9.546   1.327
20819SOL    HW264465   4.008   9.423   1.244
20820SOL     OW64466   4.447   9.949   1.058
20820SOL    HW164467   4.530   9.939   1.008
20820SOL    HW264468   4.422  10.042   1.043
20821SOL     OW64469   5.487  10.261   1.844
20821SOL    HW164470   5.444  10.194   1.787
20821SOL    HW264471   5.419  10.276   1.911
20822SOL     OW64472   4.055   9.389   0.605
20822SOL    HW164473   4.024   9.476   0.633
20822SOL    HW264474   4.043   9.337   0.687
20823SOL     OW64475   5.311   9.679   0.369
20823SOL    HW164476   5.352   9.617   0.432
20823SOL    HW264477   5.305   9.762   0.421
20824SOL     OW64478   4.772  10.060   0.979
20824SOL    HW164479   4.752  10.070   1.075
20824SOL    HW264480   4.745   9.968   0.962
20825SOL     OW64481   4.704  10.860   1.713
20825SOL    HW164482   4.698  10.910   1.631
20825SOL    HW264483   4.744  10.776   1.684
20826SOL     OW64484   5.552  10.840   1.600
20826SOL    HW164485   5.585  10.858   1.510
20826SOL    HW264486   5.635  10.838   1.651
20827SOL     OW64487   4.063  10.213   1.801
20827SOL    HW164488   4.142  10.237   1.852
20827SOL    HW264489   4.096  10.140   1.746
20828SOL     OW64490   5.228   9.564   0.113
20828SOL    HW164491   5.174   9.493   0.150
20828SOL    HW264492   5.269   9.605   0.191
20829SOL     OW64493   5.001  10.159   0.020
20829SOL    HW164494   5.041  10.072   0.043
20829SOL    HW264495   5.028  10.167  11.029
20830SOL     OW64496   4.805  10.632   0.847
20830SOL    HW164497   4.832  10.559   0.789
20830SOL    HW264498   4.861  10.706   0.818
20831SOL     OW64499   4.010  10.118   0.988
20831SOL    HW164500   4.099  10.136   0.954
20831SOL    HW264501   4.018  10.025   1.016
20832SOL     OW64502   4.046   9.849   1.014
20832SOL    HW164503   4.012   9.758   1.000
20832SOL    HW264504   4.121   9.849   0.950
20833SOL     OW64505   4.878   9.671   1.699
20833SOL    HW164506   4.832   9.731   1.763
20833SOL    HW264507   4.965   9.715   1.693
20834SOL     OW64508   4.885   9.512   1.478
20834SOL    HW164509   4.885   9.575   1.553
20834SOL    HW264510   4.934   9.561   1.410
20835SOL     OW64511   4.231  10.901   0.924
20835SOL    HW164512   4.309  10.957   0.928
20835SOL    HW264513   4.258  10.835   0.857
20836SOL     OW64514   4.705  10.086   1.238
20836SOL    HW164515   4.761  10.056   1.312
20836SOL    HW264516   4.617  10.064   1.271
20837SOL     OW64517   3.754   9.830   1.109
20837SOL    HW164518   3.833   9.821   1.054
20837SOL    HW264519   3.792   9.835   1.198
20838SOL     OW64520   3.950   9.824   1.720
20838SOL    HW164521   4.000   9.774   1.653
20838SOL    HW264522   3.897   9.884   1.666
20839SOL     OW64523   5.120  10.209   1.649
20839SOL    HW164524   5.145  10.304   1.654
20839SOL    HW264525   5.103  10.198   1.555
20840SOL     OW64526   4.521   9.881   0.389
20840SOL    HW164527   4.544   9.812   0.324
20840SOL    HW264528   4.446   9.927   0.345
20841SOL     OW64529   5.368   9.925   1.197
20841SOL    HW164530   5.345   9.864   1.268
20841SOL    HW264531   5.453   9.890   1.166
20842SOL     OW64532   3.943  10.833   1.737
20842SOL    HW164533   3.939  10.908   1.798
20842SOL    HW264534   3.963  10.758   1.796
20843SOL     OW64535   4.380   9.793   1.274
20843SOL    HW164536   4.352   9.710   1.233
20843SOL    HW264537   4.399   9.850   1.197
20844SOL     OW64538   4.172   9.779   0.200
20844SOL    HW164539   4.234   9.853   0.211
20844SOL    HW264540   4.088   9.827   0.203
20845SOL     OW64541   3.832  10.464   1.435
20845SOL    HW164542   3.851  10.415   1.517
20845SOL    HW264543   3.855  10.396   1.367
20846SOL     OW64544   5.051  10.341   1.234
20846SOL    HW164545   5.074  10.301   1.148
20846SOL    HW264546   4.970  10.388   1.211
20847SOL     OW64547   5.031  10.179   0.319
20847SOL    HW164548   4.948  10.132   0.338
20847SOL    HW264549   5.029  10.182   0.222
20848SOL     OW64550   5.489  11.025   1.147
20848SOL    HW164551   5.545  11.044   1.071
20848SOL    HW264552   5.469  10.930   1.135
20849SOL     OW64553   4.966  11.020   1.080
20849SOL    HW164554   5.056  11.044   1.052
20849SOL    HW264555   4.974  10.926   1.103
20850SOL     OW64556   3.824  10.577   1.011
20850SOL    HW164557   3.786  10.552   1.095
20850SOL    HW264558   3.759  10.539   0.949
20851SOL     OW64559   4.415  10.960   1.716
20851SOL    HW164560   4.358  11.036   1.738
20851SOL    HW264561   4.495  11.004   1.686
20852SOL     OW64562   4.635   9.437   0.139
20852SOL    HW164563   4.684   9.388   0.072
20852SOL    HW264564   4.670   9.394   0.219
20853SOL     OW64565   5.410   9.456   0.504
20853SOL    HW164566   5.485   9.444   0.444
20853SOL    HW264567   5.407   9.369   0.550
20854SOL     OW64568   5.109  10.865   0.493
20854SOL    HW164569   5.180  10.880   0.428
20854SOL    HW264570   5.073  10.954   0.499
20855SOL     OW64571   3.894   0.001   1.832
20855SOL    HW164572   3.841  11.038   1.882
20855SOL    HW264573   3.946   0.040   1.904
20856SOL     OW64574   4.522  10.585   1.403
20856SOL    HW164575   4.494  10.634   1.484
20856SOL    HW264576   4.440  10.589   1.352
20857SOL     OW64577   4.417  10.919   0.160
20857SOL    HW164578   4.408  10.926   0.065
20857SOL    HW264579   4.347  10.853   0.181
20858SOL     OW64580   5.566   9.469   0.973
20858SOL    HW164581   5.585   9.380   0.938
20858SOL    HW264582   5.481   9.492   0.929
20859SOL     OW64583   3.984   9.634   0.706
20859SOL    HW164584   3.897   9.674   0.688
20859SOL    HW264585   3.988   9.637   0.803
20860SOL     OW64586   4.946  10.904   0.040
20860SOL    HW164587   4.942  10.809   0.060
20860SOL    HW264588   4.879  10.914  11.071
20861SOL     OW64589   4.557  10.324   1.364
20861SOL    HW164590   4.595  10.317   1.276
20861SOL    HW264591   4.550  10.420   1.379
20862SOL     OW64592   4.679  10.256   0.309
20862SOL    HW164593   4.715  10.279   0.222
20862SOL    HW264594   4.682  10.160   0.309
20863SOL     OW64595   5.223  10.943   0.067
20863SOL    HW164596   5.130  10.919   0.048
20863SOL    HW264597   5.260  10.964  11.082
20864SOL     OW64598   4.064  10.592   1.492
20864SOL    HW164599   4.064  10.671   1.436
20864SOL    HW264600   3.988  10.542   1.460
20865SOL     OW64601   5.317  10.595   1.267
20865SOL    HW164602   5.372  10.579   1.345
20865SOL    HW264603   5.259  10.667   1.299
20866SOL     OW64604   4.822  10.366   0.708
20866SOL    HW164605   4.751  10.337   0.769
20866SOL    HW264606   4.769  10.388   0.630
20867SOL     OW64607   4.747   9.544   0.989
20867SOL    HW164608   4.731   9.502   0.902
20867SOL    HW264609   4.750   9.466   1.047
20868SOL     OW64610   4.346  10.829   0.498
20868SOL    HW164611   4.367  10.771   0.422
20868SOL    HW264612   4.286  10.893   0.458
20869SOL     OW64613   5.431   9.690   1.378
20869SOL    HW164614   5.497   9.762   1.381
20869SOL    HW264615   5.475   9.626   1.319
20870SOL     OW64616   4.010  10.636   0.281
20870SOL    HW164617   3.916  10.636   0.253
20870SOL    HW264618   4.003  10.680   0.368
20871SOL     OW64619   3.850  10.341   1.690
20871SOL    HW164620   3.778  10.317   1.751
20871SOL    HW264621   3.928  10.302   1.736
20872SOL     OW64622   4.402   9.495   1.483
20872SOL    HW164623   4.487   9.458   1.452
20872SOL    HW264624   4.429   9.537   1.567
20873SOL     OW64625   3.843   9.689   0.001
20873SOL    HW164626   3.765   9.637  11.077
20873SOL    HW264627   3.816   9.776  11.073
20874SOL     OW64628   5.180  10.150   1.379
20874SOL    HW164629   5.138  10.222   1.328
20874SOL    HW264630   5.273  10.178   1.379
20875SOL     OW64631   3.761   9.472   0.328
20875SOL    HW164632   3.760   9.557   0.282
20875SOL    HW264633   3.852   9.441   0.309
20876SOL     OW64634   4.901  10.639   0.125
20876SOL    HW164635   4.804  10.633   0.112
20876SOL    HW264636   4.911  10.623   0.221
20877SOL     OW64637   4.348  10.122   1.423
20877SOL    HW164638   4.399  10.204   1.412
20877SOL    HW264639   4.418  10.057   1.439
20878SOL     OW64640   5.219  11.061   0.958
20878SOL    HW164641   5.246   0.015   0.883
20878SOL    HW264642   5.303  11.050   1.004
20879SOL     OW64643   4.463   9.855   1.692
20879SOL    HW164644   4.485   9.913   1.766
20879SOL    HW264645   4.468   9.765   1.729
20880SOL     OW64646   5.199  10.472   1.639
20880SOL    HW164647   5.181  10.489   1.734
20880SOL    HW264648   5.296  10.483   1.635
20881SOL     OW64649   5.431  10.189   1.231
20881SOL    HW164650   5.409  10.097   1.204
20881SOL    HW264651   5.387  10.244   1.163
20882SOL     OW64652   4.944   9.632   0.484
20882SOL    HW164653   5.005   9.558   0.468
20882SOL    HW264654   4.986   9.678   0.559
20883SOL     OW64655   4.313  10.037   0.686
20883SOL    HW164656   4.352  10.122   0.664
20883SOL    HW264657   4.246  10.027   0.616
20884SOL     OW64658   5.494   9.683   1.640
20884SOL    HW164659   5.461   9.696   1.549
20884SOL    HW264660   5.417   9.640   1.681
20885SOL     OW64661   5.453  10.231   1.495
20885SOL    HW164662   5.476  10.325   1.505
20885SOL    HW264663   5.474  10.214   1.401
20886SOL     OW64664   4.629  10.691   0.062
20886SOL    HW164665   4.541  10.692   0.102
20886SOL    HW264666   4.627  10.771   0.006
20887SOL     OW64667   4.617  10.265   0.848
20887SOL    HW164668   4.658  10.194   0.899
20887SOL    HW264669   4.572  10.317   0.916
20888SOL     OW64670   4.765  10.311   0.058
20888SOL    HW164671   4.759  10.344  11.069
20888SOL    HW264672   4.848  10.260   0.055
20889SOL     OW64673   5.545  10.899   0.841
20889SOL    HW164674   5.470  10.855   0.800
20889SOL    HW264675   5.571  10.837   0.911
20890SOL     OW64676   3.984  10.608   1.876
20890SOL    HW164677   3.907  10.559   1.845
20890SOL    HW264678   3.968  10.608   1.973
20891SOL     OW64679   3.808  10.577   0.644
20891SOL    HW164680   3.843  10.516   0.711
20891SOL    HW264681   3.821  10.528   0.561
20892SOL     OW64682   4.392  10.713   1.603
20892SOL    HW164683   4.327  10.658   1.649
20892SOL    HW264684   4.385  10.798   1.650
20893SOL     OW64685   5.546   9.480   1.232
20893SOL    HW164686   5.560   9.386   1.242
20893SOL    HW264687   5.553   9.489   1.134
20894SOL     OW64688   4.173   9.717   0.526
20894SOL    HW164689   4.194   9.639   0.474
20894SOL    HW264690   4.116   9.683   0.597
20895SOL     OW64691   5.427  10.769   1.080
20895SOL    HW164692   5.343  10.770   1.032
20895SOL    HW264693   5.412  10.696   1.142
20896SOL     OW64694   4.052   9.844   1.291
20896SOL    HW164695   4.131   9.811   1.337
20896SOL    HW264696   4.069   9.817   1.198
20897SOL     OW64697   4.561  10.872   0.675
20897SOL    HW164698   4.562  10.960   0.632
20897SOL    HW264699   4.470  10.842   0.655
20898SOL     OW64700   5.149   9.545   1.091
20898SOL    HW164701   5.186   9.471   1.141
20898SOL    HW264702   5.103   9.597   1.160
20899SOL     OW64703   4.745   9.321   1.153
20899SOL    HW164704   4.687   9.247   1.129
20899SOL    HW264705   4.834   9.279   1.148
20900SOL     OW64706   4.462  10.647   0.318
20900SOL    HW164707   4.423  10.559   0.323
20900SOL    HW264708   4.549  10.629   0.355
20901SOL     OW64709   4.328  10.856   1.269
20901SOL    HW164710   4.333  10.943   1.311
20901SOL    HW264711   4.421  10.844   1.240
20902SOL     OW64712   5.051   9.342   0.165
20902SOL    HW164713   5.073   9.299   0.082
20902SOL    HW264714   4.959   9.312   0.180
20903SOL     OW64715   5.043   9.794   0.696
20903SOL    HW164716   4.960   9.845   0.687
20903SOL    HW264717   5.026   9.743   0.778
20904SOL     OW64718   5.323   9.515   0.860
20904SOL    HW164719   5.247   9.528   0.918
20904SOL    HW264720   5.321   9.594   0.803
20905SOL     OW64721   3.751  10.365   0.390
20905SOL    HW164722   3.814  10.389   0.322
20905SOL    HW264723   3.733  10.271   0.371
20906SOL     OW64724   3.962   9.952   1.997
20906SOL    HW164725   3.874   9.926   2.026
20906SOL    HW264726   3.969   9.916   1.907
20907SOL     OW64727   3.945   9.595   2.865
20907SOL    HW164728   3.969   9.569   2.956
20907SOL    HW264729   3.860   9.549   2.854
20908SOL     OW64730   3.729   9.722   2.480
20908SOL    HW164731   3.659   9.706   2.545
20908SOL    HW264732   3.745   9.634   2.444
20909SOL     OW64733   4.282  10.586   3.039
20909SOL    HW164734   4.199  10.578   2.991
20909SOL    HW264735   4.274  10.674   3.078
20910SOL     OW64736   5.291  10.836   2.574
20910SOL    HW164737   5.240  10.816   2.655
20910SOL    HW264738   5.226  10.829   2.502
20911SOL     OW64739   4.846   9.989   2.568
20911SOL    HW164740   4.885  10.075   2.545
20911SOL    HW264741   4.811  10.007   2.657
20912SOL     OW64742   5.503   9.916   2.103
20912SOL    HW164743   5.485   9.910   2.007
20912SOL    HW264744   5.450   9.842   2.136
20913SOL     OW64745   4.464  10.461   2.874
20913SOL    HW164746   4.404  10.499   2.940
20913SOL    HW264747   4.506  10.542   2.839
20914SOL     OW64748   4.595  10.076   3.666
20914SOL    HW164749   4.587  10.142   3.736
20914SOL    HW264750   4.615  10.130   3.587
20915SOL     OW64751   4.414  10.335   2.512
20915SOL    HW164752   4.477  10.316   2.584
20915SOL    HW264753   4.343  10.382   2.560
20916SOL     OW64754   4.448  10.446   3.655
20916SOL    HW164755   4.481  10.533   3.685
20916SOL    HW264756   4.361  10.469   3.618
20917SOL     OW64757   4.049  10.757   2.943
20917SOL    HW164758   3.981  10.721   2.884
20917SOL    HW264759   4.107  10.806   2.882
20918SOL     OW64760   5.191  10.804   3.242
20918SOL    HW164761   5.226  10.886   3.279
20918SOL    HW264762   5.117  10.786   3.303
20919SOL     OW64763   4.161   9.703   3.384
20919SOL    HW164764   4.235   9.641   3.383
20919SOL    HW264765   4.084   9.646   3.366
20920SOL     OW64766   5.345   9.762   2.595
20920SOL    HW164767   5.278   9.794   2.533
20920SOL    HW264768   5.346   9.833   2.660
20921SOL     OW64769   4.877  10.653   3.537
20921SOL    HW164770   4.907  10.661   3.629
20921SOL    HW264771   4.832  10.567   3.540
20922SOL     OW64772   3.963  10.767   2.380
20922SOL    HW164773   3.980  10.850   2.426
20922SOL    HW264774   3.912  10.714   2.444
20923SOL     OW64775   3.989  10.405   2.762
20923SOL    HW164776   3.991  10.325   2.818
20923SOL    HW264777   3.938  10.467   2.815
20924SOL     OW64778   4.285  10.308   1.977
20924SOL    HW164779   4.340  10.346   1.906
20924SOL    HW264780   4.330  10.342   2.056
20925SOL     OW64781   5.337   9.423   3.345
20925SOL    HW164782   5.337   9.474   3.263
20925SOL    HW264783   5.243   9.421   3.369
20926SOL     OW64784   3.831   9.974   2.427
20926SOL    HW164785   3.803   9.882   2.440
20926SOL    HW264786   3.832  10.011   2.517
20927SOL     OW64787   3.783  10.912   1.983
20927SOL    HW164788   3.774  10.818   2.002
20927SOL    HW264789   3.727  10.953   2.050
20928SOL     OW64790   5.398  10.247   2.516
20928SOL    HW164791   5.469  10.198   2.471
20928SOL    HW264792   5.363  10.300   2.443
20929SOL     OW64793   5.375  10.427   2.307
20929SOL    HW164794   5.467  10.419   2.275
20929SOL    HW264795   5.384  10.493   2.378
20930SOL     OW64796   3.848  10.051   3.441
20930SOL    HW164797   3.943  10.067   3.449
20930SOL    HW264798   3.812  10.135   3.473
20931SOL     OW64799   4.306  10.706   2.627
20931SOL    HW164800   4.278  10.612   2.636
20931SOL    HW264801   4.293  10.718   2.531
20932SOL     OW64802   5.028  10.545   3.289
20932SOL    HW164803   5.058  10.471   3.233
20932SOL    HW264804   5.079  10.528   3.370
20933SOL     OW64805   4.550   9.312   2.353
20933SOL    HW164806   4.584   9.403   2.349
20933SOL    HW264807   4.454   9.326   2.363
20934SOL     OW64808   3.904  10.287   3.119
20934SOL    HW164809   3.993  10.249   3.110
20934SOL    HW264810   3.848  10.217   3.081
20935SOL     OW64811   5.273  10.279   2.060
20935SOL    HW164812   5.190  10.237   2.090
20935SOL    HW264813   5.310  10.311   2.144
20936SOL     OW64814   4.914   0.002   3.489
20936SOL    HW164815   4.919   0.071   3.420
20936SOL    HW264816   4.936  11.023   3.438
20937SOL     OW64817   4.060   9.550   3.644
20937SOL    HW164818   4.120   9.624   3.658
20937SOL    HW264819   3.981   9.579   3.693
20938SOL     OW64820   5.190  10.737   2.817
20938SOL    HW164821   5.128  10.744   2.892
20938SOL    HW264822   5.167  10.649   2.782
20939SOL     OW64823   4.311  10.021   2.119
20939SOL    HW164824   4.314  10.110   2.081
20939SOL    HW264825   4.240  10.031   2.185
20940SOL     OW64826   4.997   9.650   2.778
20940SOL    HW164827   4.909   9.614   2.799
20940SOL    HW264828   5.053   9.610   2.848
20941SOL     OW64829   5.293  10.953   2.170
20941SOL    HW164830   5.343  11.030   2.199
20941SOL    HW264831   5.290  10.964   2.073
20942SOL     OW64832   4.526   9.941   3.320
20942SOL    HW164833   4.514   9.900   3.408
20942SOL    HW264834   4.488   9.873   3.262
20943SOL     OW64835   5.120   9.786   3.535
20943SOL    HW164836   5.122   9.843   3.614
20943SOL    HW264837   5.178   9.712   3.560
20944SOL     OW64838   4.683  10.203   3.436
20944SOL    HW164839   4.718  10.117   3.406
20944SOL    HW264840   4.645  10.239   3.354
20945SOL     OW64841   4.696   9.697   3.093
20945SOL    HW164842   4.605   9.722   3.114
20945SOL    HW264843   4.688   9.647   3.011
20946SOL     OW64844   4.769   9.992   2.272
20946SOL    HW164845   4.782  10.006   2.367
20946SOL    HW264846   4.680   9.951   2.270
20947SOL     OW64847   3.820  10.118   2.664
20947SOL    HW164848   3.896  10.117   2.725
20947SOL    HW264849   3.782  10.205   2.682
20948SOL     OW64850   3.781   0.025   3.433
20948SOL    HW164851   3.826   0.006   3.518
20948SOL    HW264852   3.720   0.095   3.457
20949SOL     OW64853   4.599   9.667   2.075
20949SOL    HW164854   4.638   9.724   2.007
20949SOL    HW264855   4.617   9.580   2.039
20950SOL     OW64856   5.449   9.906   3.711
20950SOL    HW164857   5.418   9.990   3.673
20950SOL    HW264858   5.439   9.849   3.634
20951SOL     OW64859   5.093  10.459   2.418
20951SOL    HW164860   5.176  10.463   2.368
20951SOL    HW264861   5.037  10.521   2.369
20952SOL     OW64862   4.268   9.513   2.756
20952SOL    HW164863   4.278   9.524   2.853
20952SOL    HW264864   4.257   9.604   2.725
20953SOL     OW64865   4.708  10.766   2.330
20953SOL    HW164866   4.628  10.809   2.297
20953SOL    HW264867   4.706  10.787   2.424
20954SOL     OW64868   4.071   0.011   2.738
20954SOL    HW164869   4.125  11.036   2.766
20954SOL    HW264870   4.137   0.084   2.740
20955SOL     OW64871   5.515  10.394   2.741
20955SOL    HW164872   5.470  10.366   2.660
20955SOL    HW264873   5.447  10.377   2.808
20956SOL     OW64874   4.935  10.862   3.364
20956SOL    HW164875   4.934  10.780   3.417
20956SOL    HW264876   4.881  10.835   3.288
20957SOL     OW64877   4.029  10.248   2.112
20957SOL    HW164878   4.112  10.263   2.064
20957SOL    HW264879   4.000  10.164   2.074
20958SOL     OW64880   5.205  10.055   2.576
20958SOL    HW164881   5.189  10.027   2.667
20958SOL    HW264882   5.276  10.121   2.586
20959SOL     OW64883   4.210  10.557   3.581
20959SOL    HW164884   4.160  10.569   3.497
20959SOL    HW264885   4.137  10.565   3.646
20960SOL     OW64886   4.799  11.080   2.112
20960SOL    HW164887   4.740  11.018   2.155
20960SOL    HW264888   4.818  11.037   2.027
20961SOL     OW64889   3.894   9.602   3.358
20961SOL    HW164890   3.817   9.653   3.386
20961SOL    HW264891   3.883   9.519   3.407
20962SOL     OW64892   5.345  10.697   1.948
20962SOL    HW164893   5.296  10.779   1.940
20962SOL    HW264894   5.279  10.629   1.923
20963SOL     OW64895   5.115   9.438   2.311
20963SOL    HW164896   5.110   9.391   2.226
20963SOL    HW264897   5.211   9.449   2.321
20964SOL     OW64898   4.117  10.015   2.318
20964SOL    HW164899   4.133   9.921   2.341
20964SOL    HW264900   4.021  10.020   2.335
20965SOL     OW64901   5.287   9.575   3.594
20965SOL    HW164902   5.278   9.583   3.692
20965SOL    HW264903   5.237   9.493   3.580
20966SOL     OW64904   4.355   9.444   1.954
20966SOL    HW164905   4.424   9.382   1.976
20966SOL    HW264906   4.302   9.394   1.887
20967SOL     OW64907   4.497   9.567   3.604
20967SOL    HW164908   4.577   9.511   3.614
20967SOL    HW264909   4.444   9.544   3.682
20968SOL     OW64910   4.621  10.841   3.039
20968SOL    HW164911   4.607  10.797   2.953
20968SOL    HW264912   4.682  10.783   3.086
20969SOL     OW64913   5.060   9.903   3.292
20969SOL    HW164914   5.099   9.872   3.376
20969SOL    HW264915   5.112   9.984   3.272
20970SOL     OW64916   4.563  10.708   2.802
20970SOL    HW164917   4.650  10.694   2.761
20970SOL    HW264918   4.507  10.728   2.725
20971SOL     OW64919   4.651   9.825   2.772
20971SOL    HW164920   4.629   9.818   2.676
20971SOL    HW264921   4.687   9.736   2.789
20972SOL     OW64922   4.278   9.362   2.366
20972SOL    HW164923   4.200   9.368   2.423
20972SOL    HW264924   4.266   9.439   2.307
20973SOL     OW64925   5.164  10.497   1.905
20973SOL    HW164926   5.195  10.422   1.959
20973SOL    HW264927   5.071  10.505   1.930
20974SOL     OW64928   3.998   9.354   2.060
20974SOL    HW164929   4.060   9.423   2.031
20974SOL    HW264930   4.060   9.289   2.099
20975SOL     OW64931   4.655   9.567   2.350
20975SOL    HW164932   4.637   9.616   2.269
20975SOL    HW264933   4.752   9.575   2.357
20976SOL     OW64934   4.810   9.986   3.337
20976SOL    HW164935   4.755   9.906   3.333
20976SOL    HW264936   4.901   9.950   3.333
20977SOL     OW64937   4.964  10.877   2.661
20977SOL    HW164938   4.922  10.957   2.628
20977SOL    HW264939   5.029  10.912   2.723
20978SOL     OW64940   4.194  10.469   2.600
20978SOL    HW164941   4.120  10.445   2.660
20978SOL    HW264942   4.158  10.445   2.512
20979SOL     OW64943   4.781   9.850   1.882
20979SOL    HW164944   4.738   9.935   1.866
20979SOL    HW264945   4.846   9.869   1.950
20980SOL     OW64946   3.786   9.867   3.254
20980SOL    HW164947   3.881   9.850   3.238
20980SOL    HW264948   3.791   9.944   3.314
20981SOL     OW64949   4.287   9.540   3.023
20981SOL    HW164950   4.334   9.471   3.072
20981SOL    HW264951   4.196   9.531   3.059
20982SOL     OW64952   4.597   9.782   2.522
20982SOL    HW164953   4.543   9.827   2.455
20982SOL    HW264954   4.621   9.700   2.477
20983SOL     OW64955   4.759   9.379   2.634
20983SOL    HW164956   4.712   9.365   2.551
20983SOL    HW264957   4.735   9.299   2.685
20984SOL     OW64958   5.148  10.487   2.740
20984SOL    HW164959   5.077  10.423   2.750
20984SOL    HW264960   5.165  10.482   2.645
20985SOL     OW64961   5.175   9.905   2.857
20985SOL    HW164962   5.134   9.817   2.860
20985SOL    HW264963   5.256   9.896   2.910
20986SOL     OW64964   5.557  10.136   2.262
20986SOL    HW164965   5.616  10.083   2.320
20986SOL    HW264966   5.548  10.075   2.186
20987SOL     OW64967   4.207  10.746   2.054
20987SOL    HW164968   4.131  10.709   2.104
20987SOL    HW264969   4.199  10.696   1.972
20988SOL     OW64970   5.393  10.588   2.525
20988SOL    HW164971   5.490  10.598   2.526
20988SOL    HW264972   5.361  10.677   2.547
20989SOL     OW64973   5.126   9.899   1.931
20989SOL    HW164974   5.073   9.876   2.010
20989SOL    HW264975   5.201   9.840   1.942
20990SOL     OW64976   4.244   9.548   2.177
20990SOL    HW164977   4.293   9.516   2.099
20990SOL    HW264978   4.207   9.632   2.141
20991SOL     OW64979   5.465  10.520   3.462
20991SOL    HW164980   5.558  10.501   3.438
20991SOL    HW264981   5.469  10.615   3.481
20992SOL     OW64982   4.793  10.674   3.210
20992SOL    HW164983   4.710  10.637   3.244
20992SOL    HW264984   4.861  10.616   3.250
20993SOL     OW64985   5.318  10.971   3.507
20993SOL    HW164986   5.328  11.041   3.439
20993SOL    HW264987   5.401  10.921   3.500
20994SOL     OW64988   4.829  10.505   2.978
20994SOL    HW164989   4.774  10.557   3.038
20994SOL    HW264990   4.817  10.551   2.894
20995SOL     OW64991   5.316  10.391   2.941
20995SOL    HW164992   5.321  10.456   3.014
20995SOL    HW264993   5.257  10.436   2.877
20996SOL     OW64994   4.653   9.404   3.267
20996SOL    HW164995   4.676   9.390   3.174
20996SOL    HW264996   4.732   9.448   3.303
20997SOL     OW64997   4.731  10.427   3.595
20997SOL    HW164998   4.638  10.446   3.618
20997SOL    HW264999   4.721  10.349   3.537
20998SOL     OW65000   4.431  10.382   2.203
20998SOL    HW165001   4.420  10.357   2.296
20998SOL    HW265002   4.509  10.329   2.177
20999SOL     OW65003   4.137  10.123   3.123
20999SOL    HW165004   4.212  10.120   3.186
20999SOL    HW265005   4.094  10.037   3.137
21000SOL     OW65006   5.009   9.694   3.132
21000SOL    HW165007   5.025   9.771   3.190
21000SOL    HW265008   4.920   9.711   3.098
21001SOL     OW65009   3.777  10.877   3.207
21001SOL    HW165010   3.763  10.945   3.140
21001SOL    HW265011   3.874  10.874   3.213
21002SOL     OW65012   4.091  10.393   2.357
21002SOL    HW165013   4.121  10.460   2.294
21002SOL    HW265014   4.078  10.315   2.299
21003SOL     OW65015   4.259   9.853   2.712
21003SOL    HW165016   4.289   9.907   2.637
21003SOL    HW265017   4.328   9.870   2.779
21004SOL     OW65018   4.962  10.663   2.249
21004SOL    HW165019   5.018  10.730   2.292
21004SOL    HW265020   4.873  10.694   2.272
21005SOL     OW65021   5.023  10.762   3.033
21005SOL    HW165022   5.084  10.778   3.108
21005SOL    HW265023   4.972  10.685   3.063
21006SOL     OW65024   5.305   9.917   2.335
21006SOL    HW165025   5.255   9.976   2.395
21006SOL    HW265026   5.346   9.979   2.273
21007SOL     OW65027   4.054  10.828   3.198
21007SOL    HW165028   4.047  10.800   3.105
21007SOL    HW265029   4.149  10.848   3.202
21008SOL     OW65030   4.161  10.037   3.479
21008SOL    HW165031   4.219  10.086   3.418
21008SOL    HW265032   4.195   9.947   3.471
21009SOL     OW65033   5.354  10.083   3.540
21009SOL    HW165034   5.261  10.110   3.533
21009SOL    HW265035   5.394  10.129   3.463
21010SOL     OW65036   4.721   9.425   3.622
21010SOL    HW165037   4.783   9.496   3.603
21010SOL    HW265038   4.766   9.350   3.579
21011SOL     OW65039   4.224   9.331   3.612
21011SOL    HW165040   4.180   9.274   3.547
21011SOL    HW265041   4.160   9.405   3.620
21012SOL     OW65042   4.299  10.211   2.903
21012SOL    HW165043   4.344  10.297   2.904
21012SOL    HW265044   4.261  10.203   2.991
21013SOL     OW65045   5.090  10.177   2.882
21013SOL    HW165046   5.001  10.145   2.861
21013SOL    HW265047   5.136  10.094   2.896
21014SOL     OW65048   4.952   9.833   2.133
21014SOL    HW165049   4.955   9.759   2.196
21014SOL    HW265050   4.888   9.892   2.178
21015SOL     OW65051   4.034   9.514   3.115
21015SOL    HW165052   3.983   9.541   3.194
21015SOL    HW265053   4.010   9.419   3.108
21016SOL     OW65054   3.736  10.613   3.138
21016SOL    HW165055   3.781  10.558   3.206
21016SOL    HW265056   3.755  10.703   3.168
21017SOL     OW65057   4.442   9.953   2.911
21017SOL    HW165058   4.522   9.921   2.864
21017SOL    HW265059   4.423  10.041   2.875
21018SOL     OW65060   5.486  10.261   3.708
21018SOL    HW165061   5.443  10.205   3.641
21018SOL    HW265062   5.414  10.275   3.771
21019SOL     OW65063   4.018   9.373   2.472
21019SOL    HW165064   3.993   9.464   2.498
21019SOL    HW265065   4.028   9.330   2.559
21020SOL     OW65066   5.314   9.682   2.208
21020SOL    HW165067   5.352   9.613   2.264
21020SOL    HW265068   5.306   9.758   2.269
21021SOL     OW65069   4.758  10.058   2.833
21021SOL    HW165070   4.753  10.066   2.931
21021SOL    HW265071   4.732   9.964   2.821
21022SOL     OW65072   4.707  10.853   3.576
21022SOL    HW165073   4.723  10.917   3.506
21022SOL    HW265074   4.753  10.773   3.543
21023SOL     OW65075   5.557  10.829   3.466
21023SOL    HW165076   5.586  10.846   3.374
21023SOL    HW265077   5.642  10.834   3.515
21024SOL     OW65078   4.071  10.214   3.658
21024SOL    HW165079   4.150  10.235   3.710
21024SOL    HW265080   4.102  10.140   3.603
21025SOL     OW65081   5.217   9.560   1.981
21025SOL    HW165082   5.158   9.489   2.013
21025SOL    HW265083   5.254   9.597   2.063
21026SOL     OW65084   5.010  10.136   1.886
21026SOL    HW165085   5.055  10.050   1.904
21026SOL    HW265086   5.047  10.157   1.798
21027SOL     OW65087   4.809  10.635   2.715
21027SOL    HW165088   4.808  10.560   2.650
21027SOL    HW265089   4.874  10.696   2.679
21028SOL     OW65090   4.008  10.121   2.857
21028SOL    HW165091   4.102  10.143   2.849
21028SOL    HW265092   4.013  10.027   2.882
21029SOL     OW65093   4.041   9.848   2.865
21029SOL    HW165094   4.015   9.755   2.853
21029SOL    HW265095   4.114   9.856   2.801
21030SOL     OW65096   4.877   9.680   3.553
21030SOL    HW165097   4.834   9.735   3.622
21030SOL    HW265098   4.966   9.720   3.549
21031SOL     OW65099   4.896   9.511   3.348
21031SOL    HW165100   4.888   9.575   3.421
21031SOL    HW265101   4.933   9.565   3.276
21032SOL     OW65102   3.728  10.632   2.039
21032SOL    HW165103   3.636  10.658   2.013
21032SOL    HW265104   3.713  10.547   2.084
21033SOL     OW65105   4.237  10.907   2.797
21033SOL    HW165106   4.314  10.965   2.798
21033SOL    HW265107   4.269  10.833   2.740
21034SOL     OW65108   4.711  10.081   3.102
21034SOL    HW165109   4.760  10.051   3.181
21034SOL    HW265110   4.621  10.056   3.126
21035SOL     OW65111   3.758   9.838   2.970
21035SOL    HW165112   3.842   9.831   2.923
21035SOL    HW265113   3.787   9.849   3.062
21036SOL     OW65114   3.943   9.830   3.580
21036SOL    HW165115   3.996   9.787   3.511
21036SOL    HW265116   3.888   9.892   3.529
21037SOL     OW65117   5.110  10.198   3.510
21037SOL    HW165118   5.138  10.291   3.516
21037SOL    HW265119   5.100  10.187   3.414
21038SOL     OW65120   4.531   9.877   2.243
21038SOL    HW165121   4.544   9.803   2.180
21038SOL    HW265122   4.457   9.925   2.204
21039SOL     OW65123   5.375   9.933   3.059
21039SOL    HW165124   5.347   9.867   3.123
21039SOL    HW265125   5.459   9.895   3.025
21040SOL     OW65126   3.941  10.831   3.600
21040SOL    HW165127   3.937  10.903   3.664
21040SOL    HW265128   3.964  10.754   3.656
21041SOL     OW65129   4.427   9.780   3.125
21041SOL    HW165130   4.368   9.709   3.096
21041SOL    HW265131   4.419   9.846   3.054
21042SOL     OW65132   4.167   9.779   2.059
21042SOL    HW165133   4.235   9.848   2.063
21042SOL    HW265134   4.086   9.832   2.057
21043SOL     OW65135   3.839  10.444   3.323
21043SOL    HW165136   3.855  10.389   3.403
21043SOL    HW265137   3.867  10.383   3.251
21044SOL     OW65138   5.052  10.332   3.103
21044SOL    HW165139   5.076  10.293   3.017
21044SOL    HW265140   4.970  10.379   3.080
21045SOL     OW65141   5.028  10.184   2.155
21045SOL    HW165142   4.953  10.142   2.199
21045SOL    HW265143   5.009  10.174   2.060
21046SOL     OW65144   5.491  11.026   3.010
21046SOL    HW165145   5.546  11.040   2.932
21046SOL    HW265146   5.463  10.933   2.999
21047SOL     OW65147   4.965  11.025   2.966
21047SOL    HW165148   5.055  11.043   2.936
21047SOL    HW265149   4.967  10.928   2.977
21048SOL     OW65150   3.824  10.579   2.881
21048SOL    HW165151   3.788  10.586   2.971
21048SOL    HW265152   3.757  10.524   2.837
21049SOL     OW65153   4.418  10.962   3.587
21049SOL    HW165154   4.358  11.037   3.599
21049SOL    HW265155   4.494  11.002   3.544
21050SOL     OW65156   5.400   9.452   2.348
21050SOL    HW165157   5.476   9.440   2.290
21050SOL    HW265158   5.404   9.372   2.405
21051SOL     OW65159   5.113  10.870   2.350
21051SOL    HW165160   5.183  10.881   2.282
21051SOL    HW265161   5.075  10.958   2.352
21052SOL     OW65162   3.878   0.006   3.690
21052SOL    HW165163   3.827  11.039   3.738
21052SOL    HW265164   3.928   0.045   3.762
21053SOL     OW65165   4.987  10.215   2.523
21053SOL    HW165166   5.066  10.159   2.540
21053SOL    HW265167   5.026  10.294   2.481
21054SOL     OW65168   4.522  10.583   3.274
21054SOL    HW165169   4.494  10.631   3.355
21054SOL    HW265170   4.440  10.590   3.222
21055SOL     OW65171   4.387  10.935   2.005
21055SOL    HW165172   4.414  10.913   1.915
21055SOL    HW265173   4.323  10.864   2.027
21056SOL     OW65174   5.571   9.476   2.833
21056SOL    HW165175   5.595   9.387   2.801
21056SOL    HW265176   5.485   9.494   2.789
21057SOL     OW65177   3.972   9.632   2.567
21057SOL    HW165178   3.898   9.693   2.549
21057SOL    HW265179   3.982   9.637   2.663
21058SOL     OW65180   4.927  10.934   1.898
21058SOL    HW165181   4.922  10.840   1.918
21058SOL    HW265182   4.867  10.944   1.822
21059SOL     OW65183   4.558  10.322   3.213
21059SOL    HW165184   4.606  10.316   3.129
21059SOL    HW265185   4.553  10.419   3.228
21060SOL     OW65186   4.641  10.236   2.132
21060SOL    HW165187   4.719  10.267   2.083
21060SOL    HW265188   4.671  10.153   2.172
21061SOL     OW65189   5.254  10.964   1.905
21061SOL    HW165190   5.161  10.941   1.895
21061SOL    HW265191   5.283  10.969   1.812
21062SOL     OW65192   4.068  10.587   3.359
21062SOL    HW165193   4.055  10.659   3.295
21062SOL    HW265194   3.988  10.533   3.348
21063SOL     OW65195   5.326  10.601   3.137
21063SOL    HW165196   5.383  10.582   3.213
21063SOL    HW265197   5.274  10.677   3.171
21064SOL     OW65198   4.771  10.416   2.571
21064SOL    HW165199   4.704  10.362   2.618
21064SOL    HW265200   4.830  10.348   2.535
21065SOL     OW65201   4.754   9.539   2.847
21065SOL    HW165202   4.750   9.493   2.760
21065SOL    HW265203   4.753   9.462   2.908
21066SOL     OW65204   4.323  10.817   2.372
21066SOL    HW165205   4.343  10.773   2.288
21066SOL    HW265206   4.284  10.900   2.342
21067SOL     OW65207   5.453   9.682   3.250
21067SOL    HW165208   5.513   9.758   3.238
21067SOL    HW265209   5.487   9.619   3.183
21068SOL     OW65210   3.981  10.656   2.150
21068SOL    HW165211   3.885  10.661   2.135
21068SOL    HW265212   3.987  10.697   2.239
21069SOL     OW65213   3.851  10.318   3.554
21069SOL    HW165214   3.778  10.308   3.618
21069SOL    HW265215   3.928  10.283   3.604
21070SOL     OW65216   4.404   9.495   3.350
21070SOL    HW165217   4.491   9.463   3.318
21070SOL    HW265218   4.428   9.533   3.436
21071SOL     OW65219   3.816   9.656   1.904
21071SOL    HW165220   3.729   9.642   1.867
21071SOL    HW265221   3.849   9.728   1.847
21072SOL     OW65222   5.183  10.152   3.249
21072SOL    HW165223   5.136  10.217   3.192
21072SOL    HW265224   5.275  10.178   3.234
21073SOL     OW65225   3.768   9.470   2.159
21073SOL    HW165226   3.768   9.554   2.110
21073SOL    HW265227   3.852   9.430   2.130
21074SOL     OW65228   4.910  10.631   1.982
21074SOL    HW165229   4.835  10.572   1.994
21074SOL    HW265230   4.942  10.639   2.075
21075SOL     OW65231   4.346  10.137   3.289
21075SOL    HW165232   4.405  10.213   3.276
21075SOL    HW265233   4.412  10.066   3.301
21076SOL     OW65234   5.223  11.059   2.830
21076SOL    HW165235   5.249   0.015   2.757
21076SOL    HW265236   5.309  11.038   2.870
21077SOL     OW65237   4.463   9.842   3.557
21077SOL    HW165238   4.488   9.908   3.624
21077SOL    HW265239   4.476   9.757   3.601
21078SOL     OW65240   5.202  10.458   3.500
21078SOL    HW165241   5.183  10.479   3.593
21078SOL    HW265242   5.297  10.480   3.495
21079SOL     OW65243   5.426  10.200   3.097
21079SOL    HW165244   5.405  10.111   3.062
21079SOL    HW265245   5.386  10.259   3.030
21080SOL     OW65246   4.923   9.645   2.336
21080SOL    HW165247   4.990   9.574   2.329
21080SOL    HW265248   4.960   9.699   2.409
21081SOL     OW65249   4.329  10.026   2.511
21081SOL    HW165250   4.367  10.115   2.510
21081SOL    HW265251   4.256  10.034   2.447
21082SOL     OW65252   5.464  10.237   3.357
21082SOL    HW165253   5.472  10.333   3.363
21082SOL    HW265254   5.473  10.221   3.261
21083SOL     OW65255   4.548  10.676   1.898
21083SOL    HW165256   4.537  10.692   1.993
21083SOL    HW265257   4.600  10.751   1.866
21084SOL     OW65258   4.605  10.258   2.708
21084SOL    HW165259   4.656  10.185   2.748
21084SOL    HW265260   4.577  10.309   2.785
21085SOL     OW65261   4.828  10.325   1.953
21085SOL    HW165262   4.791  10.368   1.874
21085SOL    HW265263   4.881  10.253   1.915
21086SOL     OW65264   5.568  10.930   2.733
21086SOL    HW165265   5.511  10.897   2.663
21086SOL    HW265266   5.587  10.850   2.783
21087SOL     OW65267   3.982  10.607   3.740
21087SOL    HW165268   3.907  10.560   3.702
21087SOL    HW265269   3.964  10.597   3.835
21088SOL     OW65270   3.825  10.571   2.521
21088SOL    HW165271   3.846  10.525   2.604
21088SOL    HW265272   3.860  10.509   2.455
21089SOL     OW65273   4.397  10.715   3.469
21089SOL    HW165274   4.338  10.657   3.521
21089SOL    HW265275   4.388  10.800   3.515
21090SOL     OW65276   5.533   9.481   3.093
21090SOL    HW165277   5.554   9.387   3.097
21090SOL    HW265278   5.544   9.497   2.996
21091SOL     OW65279   4.154   9.757   2.384
21091SOL    HW165280   4.209   9.693   2.338
21091SOL    HW265281   4.120   9.706   2.460
21092SOL     OW65282   5.424  10.776   2.950
21092SOL    HW165283   5.343  10.765   2.895
21092SOL    HW265284   5.412  10.703   3.014
21093SOL     OW65285   4.047   9.848   3.151
21093SOL    HW165286   4.116   9.806   3.205
21093SOL    HW265287   4.067   9.820   3.061
21094SOL     OW65288   4.532  10.896   2.565
21094SOL    HW165289   4.537  10.968   2.499
21094SOL    HW265290   4.448  10.853   2.544
21095SOL     OW65291   5.159   9.550   2.961
21095SOL    HW165292   5.177   9.461   2.992
21095SOL    HW265293   5.112   9.592   3.035
21096SOL     OW65294   4.744   9.318   3.016
21096SOL    HW165295   4.686   9.245   2.992
21096SOL    HW265296   4.833   9.275   3.010
21097SOL     OW65297   4.509  10.644   2.167
21097SOL    HW165298   4.466  10.557   2.165
21097SOL    HW265299   4.583  10.627   2.227
21098SOL     OW65300   4.330  10.866   3.136
21098SOL    HW165301   4.344  10.954   3.173
21098SOL    HW265302   4.419  10.845   3.104
21099SOL     OW65303   5.044   9.338   2.044
21099SOL    HW165304   5.051   9.278   1.969
21099SOL    HW265305   4.956   9.310   2.080
21100SOL     OW65306   5.021   9.790   2.540
21100SOL    HW165307   4.955   9.862   2.540
21100SOL    HW265308   5.006   9.747   2.626
21101SOL     OW65309   5.330   9.522   2.722
21101SOL    HW165310   5.254   9.526   2.781
21101SOL    HW265311   5.322   9.604   2.671
21102SOL     OW65312   3.767  10.380   2.179
21102SOL    HW165313   3.858  10.366   2.149
21102SOL    HW265314   3.741  10.288   2.199
21103SOL     OW65315   3.961   9.954   3.857
21103SOL    HW165316   3.873   9.927   3.886
21103SOL    HW265317   3.965   9.927   3.763
21104SOL     OW65318   3.947   9.595   4.720
21104SOL    HW165319   3.970   9.570   4.811
21104SOL    HW265320   3.862   9.549   4.708
21105SOL     OW65321   3.720   9.717   4.342
21105SOL    HW165322   3.640   9.738   4.393
21105SOL    HW265323   3.695   9.632   4.302
21106SOL     OW65324   4.282  10.587   4.907
21106SOL    HW165325   4.198  10.585   4.859
21106SOL    HW265326   4.282  10.677   4.944
21107SOL     OW65327   5.291  10.820   4.430
21107SOL    HW165328   5.235  10.819   4.510
21107SOL    HW265329   5.226  10.827   4.358
21108SOL     OW65330   4.855   9.984   4.440
21108SOL    HW165331   4.888  10.072   4.414
21108SOL    HW265332   4.809  10.005   4.523
21109SOL     OW65333   5.508   9.920   3.969
21109SOL    HW165334   5.480   9.913   3.875
21109SOL    HW265335   5.450   9.857   4.013
21110SOL     OW65336   4.448  10.461   4.730
21110SOL    HW165337   4.390  10.501   4.798
21110SOL    HW265338   4.496  10.540   4.698
21111SOL     OW65339   4.587  10.107   5.532
21111SOL    HW165340   4.579  10.170   5.604
21111SOL    HW265341   4.616  10.161   5.456
21112SOL     OW65342   4.417  10.336   4.380
21112SOL    HW165343   4.479  10.319   4.452
21112SOL    HW265344   4.345  10.383   4.426
21113SOL     OW65345   4.437  10.445   5.524
21113SOL    HW165346   4.475  10.530   5.553
21113SOL    HW265347   4.352  10.473   5.486
21114SOL     OW65348   4.054  10.756   4.803
21114SOL    HW165349   3.983  10.724   4.746
21114SOL    HW265350   4.109  10.810   4.744
21115SOL     OW65351   5.194  10.798   5.112
21115SOL    HW165352   5.245  10.869   5.152
21115SOL    HW265353   5.118  10.793   5.172
21116SOL     OW65354   4.163   9.699   5.244
21116SOL    HW165355   4.233   9.632   5.237
21116SOL    HW265356   4.082   9.649   5.224
21117SOL     OW65357   5.341   9.762   4.463
21117SOL    HW165358   5.268   9.792   4.406
21117SOL    HW265359   5.317   9.805   4.546
21118SOL     OW65360   4.865  10.653   5.397
21118SOL    HW165361   4.910  10.657   5.483
21118SOL    HW265362   4.819  10.566   5.404
21119SOL     OW65363   3.935  10.783   4.242
21119SOL    HW165364   3.977  10.854   4.291
21119SOL    HW265365   3.898  10.726   4.312
21120SOL     OW65366   3.995  10.403   4.620
21120SOL    HW165367   3.987  10.328   4.680
21120SOL    HW265368   3.945  10.472   4.668
21121SOL     OW65369   4.289  10.305   3.836
21121SOL    HW165370   4.344  10.345   3.766
21121SOL    HW265371   4.332  10.340   3.916
21122SOL     OW65372   5.333   9.414   5.218
21122SOL    HW165373   5.315   9.488   5.158
21122SOL    HW265374   5.341   9.460   5.303
21123SOL     OW65375   3.844   9.963   4.289
21123SOL    HW165376   3.812   9.871   4.301
21123SOL    HW265377   3.833  10.002   4.377
21124SOL     OW65378   3.776  10.909   3.837
21124SOL    HW165379   3.764  10.814   3.856
21124SOL    HW265380   3.747  10.950   3.919
21125SOL     OW65381   5.426  10.220   4.346
21125SOL    HW165382   5.478  10.187   4.270
21125SOL    HW265383   5.367  10.284   4.303
21126SOL     OW65384   5.369  10.432   4.164
21126SOL    HW165385   5.461  10.422   4.133
21126SOL    HW265386   5.380  10.491   4.240
21127SOL     OW65387   3.844  10.045   5.305
21127SOL    HW165388   3.937  10.070   5.309
21127SOL    HW265389   3.799  10.131   5.303
21128SOL     OW65390   4.314  10.704   4.492
21128SOL    HW165391   4.282  10.612   4.501
21128SOL    HW265392   4.304  10.716   4.396
21129SOL     OW65393   5.024  10.533   5.151
21129SOL    HW165394   5.052  10.460   5.093
21129SOL    HW265395   5.079  10.519   5.230
21130SOL     OW65396   4.558   9.313   4.214
21130SOL    HW165397   4.588   9.406   4.207
21130SOL    HW265398   4.461   9.324   4.224
21131SOL     OW65399   3.908  10.295   4.983
21131SOL    HW165400   3.996  10.254   4.974
21131SOL    HW265401   3.852  10.236   4.931
21132SOL     OW65402   5.266  10.276   3.918
21132SOL    HW165403   5.183  10.234   3.950
21132SOL    HW265404   5.301  10.316   4.000
21133SOL     OW65405   4.911  11.100   5.346
21133SOL    HW165406   4.920   0.070   5.281
21133SOL    HW265407   4.945  11.023   5.297
21134SOL     OW65408   4.049   9.558   5.507
21134SOL    HW165409   4.113   9.623   5.538
21134SOL    HW265410   3.971   9.582   5.560
21135SOL     OW65411   5.193  10.736   4.687
21135SOL    HW165412   5.129  10.746   4.760
21135SOL    HW265413   5.165  10.650   4.649
21136SOL     OW65414   4.307  10.016   3.979
21136SOL    HW165415   4.315  10.106   3.946
21136SOL    HW265416   4.239  10.026   4.048
21137SOL     OW65417   4.990   9.638   4.637
21137SOL    HW165418   4.900   9.610   4.663
21137SOL    HW265419   5.046   9.600   4.708
21138SOL     OW65420   5.293  10.953   4.030
21138SOL    HW165421   5.349  11.026   4.058
21138SOL    HW265422   5.291  10.961   3.933
21139SOL     OW65423   4.532   9.939   5.182
21139SOL    HW165424   4.517   9.906   5.273
21139SOL    HW265425   4.476   9.877   5.131
21140SOL     OW65426   5.113   9.791   5.400
21140SOL    HW165427   5.126   9.849   5.477
21140SOL    HW265428   5.177   9.719   5.417
21141SOL     OW65429   4.686  10.211   5.295
21141SOL    HW165430   4.724  10.125   5.266
21141SOL    HW265431   4.641  10.240   5.213
21142SOL     OW65432   4.696   9.706   4.954
21142SOL    HW165433   4.606   9.722   4.984
21142SOL    HW265434   4.684   9.653   4.874
21143SOL     OW65435   4.764   9.998   4.125
21143SOL    HW165436   4.778  10.015   4.220
21143SOL    HW265437   4.678   9.951   4.126
21144SOL     OW65438   3.826  10.116   4.519
21144SOL    HW165439   3.899  10.119   4.584
21144SOL    HW265440   3.770  10.189   4.548
21145SOL     OW65441   3.807   0.051   5.299
21145SOL    HW165442   3.836   0.025   5.389
21145SOL    HW265443   3.711   0.055   5.308
21146SOL     OW65444   4.600   9.675   3.934
21146SOL    HW165445   4.634   9.731   3.863
21146SOL    HW265446   4.617   9.587   3.900
21147SOL     OW65447   5.442   9.881   5.567
21147SOL    HW165448   5.404   9.961   5.525
21147SOL    HW265449   5.473   9.833   5.489
21148SOL     OW65450   5.093  10.464   4.285
21148SOL    HW165451   5.173  10.465   4.230
21148SOL    HW265452   5.034  10.523   4.234
21149SOL     OW65453   4.276   9.517   4.615
21149SOL    HW165454   4.288   9.525   4.712
21149SOL    HW265455   4.265   9.609   4.588
21150SOL     OW65456   4.710  10.769   4.202
21150SOL    HW165457   4.632  10.805   4.158
21150SOL    HW265458   4.695  10.794   4.294
21151SOL     OW65459   4.074   0.004   4.602
21151SOL    HW165460   4.132  11.031   4.627
21151SOL    HW265461   4.135   0.081   4.604
21152SOL     OW65462   5.508  10.351   4.605
21152SOL    HW165463   5.458  10.365   4.523
21152SOL    HW265464   5.440  10.365   4.674
21153SOL     OW65465   4.947  10.856   5.226
21153SOL    HW165466   4.937  10.781   5.286
21153SOL    HW265467   4.890  10.828   5.153
21154SOL     OW65468   4.031  10.252   3.971
21154SOL    HW165469   4.111  10.276   3.921
21154SOL    HW265470   4.003  10.171   3.925
21155SOL     OW65471   5.192  10.062   4.441
21155SOL    HW165472   5.185  10.014   4.526
21155SOL    HW265473   5.276  10.110   4.452
21156SOL     OW65474   4.205  10.565   5.444
21156SOL    HW165475   4.155  10.574   5.360
21156SOL    HW265476   4.133  10.569   5.509
21157SOL     OW65477   4.811  11.077   3.987
21157SOL    HW165478   4.736  11.033   4.027
21157SOL    HW265479   4.819  11.034   3.900
21158SOL     OW65480   3.896   9.602   5.226
21158SOL    HW165481   3.814   9.642   5.259
21158SOL    HW265482   3.898   9.517   5.274
21159SOL     OW65483   5.346  10.686   3.813
21159SOL    HW165484   5.296  10.768   3.806
21159SOL    HW265485   5.280  10.620   3.784
21160SOL     OW65486   5.117   9.445   4.180
21160SOL    HW165487   5.110   9.398   4.095
21160SOL    HW265488   5.212   9.443   4.197
21161SOL     OW65489   4.124  10.011   4.184
21161SOL    HW165490   4.146   9.919   4.207
21161SOL    HW265491   4.029  10.011   4.206
21162SOL     OW65492   5.261   9.573   5.446
21162SOL    HW165493   5.260   9.576   5.545
21162SOL    HW265494   5.202   9.498   5.430
21163SOL     OW65495   4.355   9.441   3.815
21163SOL    HW165496   4.424   9.379   3.843
21163SOL    HW265497   4.306   9.388   3.749
21164SOL     OW65498   4.496   9.573   5.458
21164SOL    HW165499   4.578   9.523   5.472
21164SOL    HW265500   4.444   9.551   5.537
21165SOL     OW65501   4.603  10.830   4.911
21165SOL    HW165502   4.601  10.790   4.822
21165SOL    HW265503   4.672  10.781   4.958
21166SOL     OW65504   5.061   9.903   5.157
21166SOL    HW165505   5.095   9.871   5.243
21166SOL    HW265506   5.115   9.982   5.139
21167SOL     OW65507   4.557  10.706   4.660
21167SOL    HW165508   4.642  10.699   4.613
21167SOL    HW265509   4.493  10.716   4.587
21168SOL     OW65510   4.662   9.828   4.632
21168SOL    HW165511   4.641   9.817   4.536
21168SOL    HW265512   4.691   9.738   4.655
21169SOL     OW65513   4.282   9.359   4.230
21169SOL    HW165514   4.201   9.366   4.284
21169SOL    HW265515   4.272   9.437   4.170
21170SOL     OW65516   5.160  10.491   3.761
21170SOL    HW165517   5.192  10.418   3.818
21170SOL    HW265518   5.070  10.505   3.793
21171SOL     OW65519   4.009   9.359   3.915
21171SOL    HW165520   4.070   9.431   3.894
21171SOL    HW265521   4.070   9.294   3.956
21172SOL     OW65522   4.659   9.567   4.208
21172SOL    HW165523   4.643   9.616   4.125
21172SOL    HW265524   4.755   9.580   4.219
21173SOL     OW65525   4.811   9.993   5.193
21173SOL    HW165526   4.752   9.916   5.192
21173SOL    HW265527   4.900   9.954   5.191
21174SOL     OW65528   4.967  10.878   4.524
21174SOL    HW165529   4.917  10.951   4.487
21174SOL    HW265530   5.010  10.920   4.600
21175SOL     OW65531   4.194  10.470   4.460
21175SOL    HW165532   4.123  10.441   4.521
21175SOL    HW265533   4.157  10.444   4.372
21176SOL     OW65534   4.783   9.849   3.744
21176SOL    HW165535   4.735   9.932   3.731
21176SOL    HW265536   4.845   9.868   3.816
21177SOL     OW65537   3.789   9.862   5.116
21177SOL    HW165538   3.883   9.842   5.103
21177SOL    HW265539   3.793   9.941   5.175
21178SOL     OW65540   4.297   9.535   4.881
21178SOL    HW165541   4.341   9.464   4.931
21178SOL    HW265542   4.206   9.528   4.913
21179SOL     OW65543   4.603   9.774   4.382
21179SOL    HW165544   4.550   9.821   4.315
21179SOL    HW265545   4.615   9.687   4.340
21180SOL     OW65546   4.746   9.388   4.490
21180SOL    HW165547   4.701   9.368   4.407
21180SOL    HW265548   4.727   9.308   4.543
21181SOL     OW65549   5.149  10.490   4.597
21181SOL    HW165550   5.078  10.425   4.608
21181SOL    HW265551   5.152  10.499   4.500
21182SOL     OW65552   5.219   9.871   4.687
21182SOL    HW165553   5.156   9.800   4.706
21182SOL    HW265554   5.267   9.880   4.772
21183SOL     OW65555   5.565  10.137   4.123
21183SOL    HW165556   5.620  10.077   4.178
21183SOL    HW265557   5.545  10.078   4.048
21184SOL     OW65558   4.205  10.743   3.919
21184SOL    HW165559   4.133  10.702   3.970
21184SOL    HW265560   4.183  10.711   3.831
21185SOL     OW65561   5.408  10.564   4.396
21185SOL    HW165562   5.504  10.584   4.389
21185SOL    HW265563   5.370  10.652   4.416
21186SOL     OW65564   5.128   9.896   3.793
21186SOL    HW165565   5.071   9.876   3.870
21186SOL    HW265566   5.206   9.844   3.814
21187SOL     OW65567   4.251   9.544   4.039
21187SOL    HW165568   4.295   9.514   3.957
21187SOL    HW265569   4.215   9.630   4.008
21188SOL     OW65570   5.462  10.523   5.323
21188SOL    HW165571   5.554  10.498   5.303
21188SOL    HW265572   5.473  10.611   5.361
21189SOL     OW65573   4.784  10.680   5.083
21189SOL    HW165574   4.699  10.641   5.111
21189SOL    HW265575   4.849  10.618   5.122
21190SOL     OW65576   5.307  10.965   5.355
21190SOL    HW165577   5.327  11.037   5.293
21190SOL    HW265578   5.394  10.922   5.365
21191SOL     OW65579   4.869  10.527   4.829
21191SOL    HW165580   4.793  10.554   4.880
21191SOL    HW265581   4.850  10.565   4.743
21192SOL     OW65582   5.323  10.398   4.798
21192SOL    HW165583   5.328  10.461   4.872
21192SOL    HW265584   5.259  10.441   4.737
21193SOL     OW65585   4.642   9.400   5.128
21193SOL    HW165586   4.673   9.385   5.037
21193SOL    HW265587   4.721   9.442   5.168
21194SOL     OW65588   4.724  10.431   5.463
21194SOL    HW165589   4.631  10.451   5.482
21194SOL    HW265590   4.716  10.357   5.400
21195SOL     OW65591   4.428  10.383   4.057
21195SOL    HW165592   4.412  10.355   4.149
21195SOL    HW265593   4.504  10.326   4.033
21196SOL     OW65594   4.143  10.126   4.981
21196SOL    HW165595   4.219  10.126   5.042
21196SOL    HW265596   4.103  10.040   4.998
21197SOL     OW65597   5.004   9.703   4.983
21197SOL    HW165598   5.023   9.777   5.044
21197SOL    HW265599   4.911   9.719   4.958
21198SOL     OW65600   3.779  10.878   5.070
21198SOL    HW165601   3.760  10.949   5.008
21198SOL    HW265602   3.876  10.881   5.078
21199SOL     OW65603   4.090  10.392   4.219
21199SOL    HW165604   4.087  10.462   4.153
21199SOL    HW265605   4.083  10.312   4.163
21200SOL     OW65606   4.259   9.850   4.568
21200SOL    HW165607   4.291   9.905   4.493
21200SOL    HW265608   4.320   9.875   4.638
21201SOL     OW65609   4.961  10.659   4.114
21201SOL    HW165610   5.017  10.729   4.154
21201SOL    HW265611   4.872  10.692   4.137
21202SOL     OW65612   5.029  10.760   4.900
21202SOL    HW165613   5.084  10.771   4.980
21202SOL    HW265614   4.975  10.682   4.921
21203SOL     OW65615   5.311   9.936   4.200
21203SOL    HW165616   5.256   9.983   4.264
21203SOL    HW265617   5.328  10.004   4.134
21204SOL     OW65618   4.055  10.824   5.061
21204SOL    HW165619   4.046  10.795   4.968
21204SOL    HW265620   4.150  10.846   5.061
21205SOL     OW65621   4.154  10.036   5.338
21205SOL    HW165622   4.214  10.084   5.279
21205SOL    HW265623   4.188   9.946   5.333
21206SOL     OW65624   5.354  10.082   5.412
21206SOL    HW165625   5.263  10.116   5.410
21206SOL    HW265626   5.392  10.123   5.331
21207SOL     OW65627   4.723   9.432   5.483
21207SOL    HW165628   4.785   9.503   5.460
21207SOL    HW265629   4.769   9.355   5.446
21208SOL     OW65630   4.224   9.332   5.476
21208SOL    HW165631   4.184   9.270   5.412
21208SOL    HW265632   4.159   9.404   5.476
21209SOL     OW65633   4.329  10.202   4.767
21209SOL    HW165634   4.352  10.297   4.768
21209SOL    HW265635   4.268  10.193   4.842
21210SOL     OW65636   5.096  10.181   4.731
21210SOL    HW165637   5.007  10.146   4.717
21210SOL    HW265638   5.143  10.103   4.762
21211SOL     OW65639   4.945   9.836   3.994
21211SOL    HW165640   4.951   9.763   4.058
21211SOL    HW265641   4.878   9.893   4.038
21212SOL     OW65642   4.032   9.514   4.971
21212SOL    HW165643   3.980   9.541   5.048
21212SOL    HW265644   4.012   9.418   4.966
21213SOL     OW65645   3.764  10.614   4.996
21213SOL    HW165646   3.789  10.562   5.074
21213SOL    HW265647   3.770  10.706   5.027
21214SOL     OW65648   4.439   9.947   4.772
21214SOL    HW165649   4.522   9.924   4.727
21214SOL    HW265650   4.427  10.042   4.754
21215SOL     OW65651   5.499  10.261   5.560
21215SOL    HW165652   5.451  10.194   5.509
21215SOL    HW265653   5.435  10.282   5.629
21216SOL     OW65654   4.031   9.378   4.330
21216SOL    HW165655   3.999   9.468   4.351
21216SOL    HW265656   4.033   9.337   4.418
21217SOL     OW65657   5.323   9.692   4.082
21217SOL    HW165658   5.348   9.623   4.145
21217SOL    HW265659   5.314   9.770   4.139
21218SOL     OW65660   4.775  10.061   4.700
21218SOL    HW165661   4.753  10.076   4.794
21218SOL    HW265662   4.741   9.970   4.686
21219SOL     OW65663   4.704  10.861   5.431
21219SOL    HW165664   4.723  10.920   5.357
21219SOL    HW265665   4.741  10.776   5.401
21220SOL     OW65666   5.564  10.826   5.334
21220SOL    HW165667   5.590  10.838   5.241
21220SOL    HW265668   5.651  10.831   5.379
21221SOL     OW65669   4.076  10.206   5.524
21221SOL    HW165670   4.157  10.225   5.574
21221SOL    HW265671   4.105  10.132   5.466
21222SOL     OW65672   5.234   9.574   3.853
21222SOL    HW165673   5.161   9.516   3.879
21222SOL    HW265674   5.267   9.609   3.938
21223SOL     OW65675   5.007  10.143   3.749
21223SOL    HW165676   5.043  10.055   3.766
21223SOL    HW265677   5.043  10.161   3.659
21224SOL     OW65678   4.804  10.643   4.569
21224SOL    HW165679   4.805  10.564   4.509
21224SOL    HW265680   4.870  10.703   4.530
21225SOL     OW65681   4.004  10.125   4.719
21225SOL    HW165682   4.095  10.147   4.695
21225SOL    HW265683   4.013  10.032   4.746
21226SOL     OW65684   4.048   9.846   4.728
21226SOL    HW165685   4.018   9.754   4.715
21226SOL    HW265686   4.116   9.853   4.657
21227SOL     OW65687   4.875   9.673   5.416
21227SOL    HW165688   4.829   9.727   5.484
21227SOL    HW265689   4.962   9.717   5.413
21228SOL     OW65690   4.891   9.504   5.209
21228SOL    HW165691   4.885   9.569   5.282
21228SOL    HW265692   4.932   9.557   5.139
21229SOL     OW65693   3.725  10.627   3.901
21229SOL    HW165694   3.635  10.651   3.871
21229SOL    HW265695   3.710  10.541   3.942
21230SOL     OW65696   4.241  10.905   4.658
21230SOL    HW165697   4.322  10.957   4.662
21230SOL    HW265698   4.271  10.829   4.604
21231SOL     OW65699   4.705  10.094   4.961
21231SOL    HW165700   4.759  10.058   5.034
21231SOL    HW265701   4.617  10.065   4.986
21232SOL     OW65702   3.761   9.832   4.831
21232SOL    HW165703   3.843   9.823   4.780
21232SOL    HW265704   3.792   9.834   4.922
21233SOL     OW65705   3.940   9.833   5.451
21233SOL    HW165706   3.989   9.781   5.386
21233SOL    HW265707   3.890   9.895   5.395
21234SOL     OW65708   5.118  10.207   5.374
21234SOL    HW165709   5.143  10.302   5.381
21234SOL    HW265710   5.098  10.198   5.280
21235SOL     OW65711   4.529   9.877   4.104
21235SOL    HW165712   4.540   9.805   4.038
21235SOL    HW265713   4.454   9.926   4.068
21236SOL     OW65714   5.360   9.924   4.924
21236SOL    HW165715   5.340   9.865   4.998
21236SOL    HW265716   5.446   9.890   4.894
21237SOL     OW65717   3.941  10.835   5.460
21237SOL    HW165718   3.937  10.908   5.523
21237SOL    HW265719   3.964  10.759   5.516
21238SOL     OW65720   4.397   9.794   4.995
21238SOL    HW165721   4.359   9.713   4.958
21238SOL    HW265722   4.403   9.853   4.916
21239SOL     OW65723   4.167   9.776   3.920
21239SOL    HW165724   4.233   9.847   3.926
21239SOL    HW265725   4.085   9.829   3.916
21240SOL     OW65726   3.832  10.441   5.193
21240SOL    HW165727   3.861  10.390   5.271
21240SOL    HW265728   3.863  10.385   5.118
21241SOL     OW65729   5.049  10.337   4.962
21241SOL    HW165730   5.072  10.295   4.877
21241SOL    HW265731   4.979  10.399   4.933
21242SOL     OW65732   5.028  10.185   4.019
21242SOL    HW165733   4.947  10.149   4.058
21242SOL    HW265734   5.008  10.185   3.923
21243SOL     OW65735   5.494  11.024   4.878
21243SOL    HW165736   5.545  11.047   4.799
21243SOL    HW265737   5.473  10.929   4.864
21244SOL     OW65738   4.970  11.019   4.812
21244SOL    HW165739   5.061  11.042   4.785
21244SOL    HW265740   4.981  10.927   4.843
21245SOL     OW65741   3.831  10.575   4.738
21245SOL    HW165742   3.800  10.589   4.830
21245SOL    HW265743   3.758  10.523   4.701
21246SOL     OW65744   4.408  10.963   5.454
21246SOL    HW165745   4.350  11.040   5.458
21246SOL    HW265746   4.492  11.001   5.423
21247SOL     OW65747   5.402   9.449   4.219
21247SOL    HW165748   5.474   9.434   4.155
21247SOL    HW265749   5.402   9.365   4.269
21248SOL     OW65750   5.115  10.870   4.213
21248SOL    HW165751   5.183  10.886   4.145
21248SOL    HW265752   5.072  10.957   4.217
21249SOL     OW65753   3.876   0.011   5.558
21249SOL    HW165754   3.827  11.043   5.607
21249SOL    HW265755   3.930   0.048   5.629
21250SOL     OW65756   4.980  10.217   4.381
21250SOL    HW165757   5.060  10.163   4.401
21250SOL    HW265758   5.020  10.297   4.342
21251SOL     OW65759   4.516  10.584   5.134
21251SOL    HW165760   4.489  10.630   5.216
21251SOL    HW265761   4.437  10.596   5.080
21252SOL     OW65762   4.392  10.930   3.866
21252SOL    HW165763   4.413  10.917   3.772
21252SOL    HW265764   4.332  10.855   3.886
21253SOL     OW65765   5.561   9.472   4.699
21253SOL    HW165766   5.581   9.385   4.661
21253SOL    HW265767   5.473   9.494   4.662
21254SOL     OW65768   3.968   9.628   4.426
21254SOL    HW165769   3.884   9.675   4.408
21254SOL    HW265770   3.976   9.635   4.522
21255SOL     OW65771   4.923  10.936   3.758
21255SOL    HW165772   4.916  10.843   3.784
21255SOL    HW265773   4.859  10.944   3.685
21256SOL     OW65774   4.551  10.324   5.081
21256SOL    HW165775   4.600  10.318   4.999
21256SOL    HW265776   4.539  10.421   5.093
21257SOL     OW65777   4.638  10.231   3.992
21257SOL    HW165778   4.713  10.266   3.941
21257SOL    HW265779   4.675  10.153   4.035
21258SOL     OW65780   5.253  10.956   3.765
21258SOL    HW165781   5.159  10.940   3.755
21258SOL    HW265782   5.282  10.964   3.672
21259SOL     OW65783   4.064  10.587   5.215
21259SOL    HW165784   4.056  10.668   5.162
21259SOL    HW265785   3.982  10.540   5.196
21260SOL     OW65786   5.335  10.599   5.006
21260SOL    HW165787   5.376  10.570   5.088
21260SOL    HW265788   5.282  10.675   5.038
21261SOL     OW65789   4.785  10.413   4.444
21261SOL    HW165790   4.714  10.359   4.483
21261SOL    HW265791   4.841  10.346   4.402
21262SOL     OW65792   4.752   9.540   4.712
21262SOL    HW165793   4.741   9.500   4.623
21262SOL    HW265794   4.758   9.459   4.767
21263SOL     OW65795   4.324  10.812   4.235
21263SOL    HW165796   4.338  10.772   4.147
21263SOL    HW265797   4.277  10.893   4.213
21264SOL     OW65798   5.434   9.686   5.097
21264SOL    HW165799   5.503   9.755   5.096
21264SOL    HW265800   5.478   9.615   5.045
21265SOL     OW65801   3.975  10.646   4.018
21265SOL    HW165802   3.881  10.650   3.995
21265SOL    HW265803   3.975  10.698   4.101
21266SOL     OW65804   3.861  10.327   5.438
21266SOL    HW165805   3.817  10.335   5.523
21266SOL    HW265806   3.945  10.283   5.465
21267SOL     OW65807   4.398   9.495   5.213
21267SOL    HW165808   4.484   9.461   5.182
21267SOL    HW265809   4.423   9.533   5.300
21268SOL     OW65810   3.825   9.655   3.760
21268SOL    HW165811   3.733   9.646   3.733
21268SOL    HW265812   3.855   9.729   3.703
21269SOL     OW65813   5.181  10.150   5.104
21269SOL    HW165814   5.134  10.219   5.053
21269SOL    HW265815   5.270  10.189   5.112
21270SOL     OW65816   3.769   9.471   4.021
21270SOL    HW165817   3.762   9.560   3.983
21270SOL    HW265818   3.853   9.440   3.981
21271SOL     OW65819   4.913  10.638   3.837
21271SOL    HW165820   4.828  10.591   3.842
21271SOL    HW265821   4.940  10.640   3.931
21272SOL     OW65822   4.348  10.137   5.151
21272SOL    HW165823   4.403  10.217   5.146
21272SOL    HW265824   4.417  10.069   5.162
21273SOL     OW65825   5.228  11.062   4.690
21273SOL    HW165826   5.248   0.017   4.614
21273SOL    HW265827   5.313  11.055   4.734
21274SOL     OW65828   4.460   9.857   5.425
21274SOL    HW165829   4.483   9.919   5.496
21274SOL    HW265830   4.465   9.770   5.466
21275SOL     OW65831   5.200  10.467   5.362
21275SOL    HW165832   5.184  10.486   5.457
21275SOL    HW265833   5.296  10.483   5.355
21276SOL     OW65834   5.440  10.186   4.941
21276SOL    HW165835   5.406  10.096   4.926
21276SOL    HW265836   5.383  10.241   4.884
21277SOL     OW65837   4.928   9.640   4.201
21277SOL    HW165838   4.994   9.568   4.195
21277SOL    HW265839   4.963   9.690   4.277
21278SOL     OW65840   4.331  10.029   4.376
21278SOL    HW165841   4.365  10.119   4.374
21278SOL    HW265842   4.258  10.033   4.311
21279SOL     OW65843   5.497   9.679   5.358
21279SOL    HW165844   5.466   9.689   5.266
21279SOL    HW265845   5.418   9.639   5.399
21280SOL     OW65846   5.449  10.232   5.210
21280SOL    HW165847   5.476  10.324   5.223
21280SOL    HW265848   5.474  10.216   5.117
21281SOL     OW65849   4.557  10.671   3.758
21281SOL    HW165850   4.543  10.688   3.853
21281SOL    HW265851   4.605  10.749   3.726
21282SOL     OW65852   4.612  10.255   4.573
21282SOL    HW165853   4.667  10.186   4.615
21282SOL    HW265854   4.577  10.305   4.649
21283SOL     OW65855   4.826  10.324   3.817
21283SOL    HW165856   4.794  10.366   3.734
21283SOL    HW265857   4.885  10.255   3.782
21284SOL     OW65858   5.597  10.830   4.573
21284SOL    HW165859   5.518  10.838   4.518
21284SOL    HW265860   5.560  10.811   4.660
21285SOL     OW65861   3.982  10.608   5.600
21285SOL    HW165862   3.900  10.572   5.564
21285SOL    HW265863   3.964  10.607   5.696
21286SOL     OW65864   3.824  10.567   4.385
21286SOL    HW165865   3.852  10.522   4.466
21286SOL    HW265866   3.858  10.507   4.316
21287SOL     OW65867   4.404  10.719   5.335
21287SOL    HW165868   4.339  10.664   5.382
21287SOL    HW265869   4.395  10.805   5.380
21288SOL     OW65870   5.549   9.479   4.961
21288SOL    HW165871   5.559   9.384   4.975
21288SOL    HW265872   5.553   9.485   4.863
21289SOL     OW65873   4.161   9.750   4.248
21289SOL    HW165874   4.210   9.680   4.203
21289SOL    HW265875   4.117   9.703   4.321
21290SOL     OW65876   5.434  10.772   4.804
21290SOL    HW165877   5.349  10.761   4.756
21290SOL    HW265878   5.423  10.705   4.875
21291SOL     OW65879   4.055   9.839   5.014
21291SOL    HW165880   4.128   9.800   5.064
21291SOL    HW265881   4.076   9.817   4.922
21292SOL     OW65882   4.526  10.906   4.418
21292SOL    HW165883   4.535  10.976   4.350
21292SOL    HW265884   4.440  10.866   4.398
21293SOL     OW65885   5.158   9.558   4.823
21293SOL    HW165886   5.181   9.474   4.865
21293SOL    HW265887   5.107   9.605   4.892
21294SOL     OW65888   4.740   9.311   4.876
21294SOL    HW165889   4.683   9.239   4.846
21294SOL    HW265890   4.829   9.268   4.873
21295SOL     OW65891   4.518  10.646   4.029
21295SOL    HW165892   4.466  10.564   4.028
21295SOL    HW265893   4.587  10.624   4.093
21296SOL     OW65894   4.326  10.861   4.993
21296SOL    HW165895   4.333  10.946   5.037
21296SOL    HW265896   4.418  10.846   4.967
21297SOL     OW65897   5.039   9.350   3.887
21297SOL    HW165898   5.055   9.279   3.823
21297SOL    HW265899   4.955   9.319   3.927
21298SOL     OW65900   5.032   9.785   4.420
21298SOL    HW165901   4.968   9.859   4.424
21298SOL    HW265902   5.006   9.733   4.499
21299SOL     OW65903   5.325   9.521   4.592
21299SOL    HW165904   5.251   9.533   4.653
21299SOL    HW265905   5.322   9.600   4.536
21300SOL     OW65906   3.771  10.373   4.045
21300SOL    HW165907   3.859  10.354   4.010
21300SOL    HW265908   3.744  10.282   4.071
21301SOL     OW65909   3.963   9.959   5.718
21301SOL    HW165910   3.880   9.924   5.752
21301SOL    HW265911   3.967   9.928   5.626
21302SOL     OW65912   3.937   9.606   6.587
21302SOL    HW165913   3.962   9.573   6.675
21302SOL    HW265914   3.856   9.552   6.569
21303SOL     OW65915   3.722   9.714   6.206
21303SOL    HW165916   3.640   9.735   6.256
21303SOL    HW265917   3.698   9.628   6.169
21304SOL     OW65918   4.280  10.586   6.760
21304SOL    HW165919   4.195  10.593   6.714
21304SOL    HW265920   4.286  10.674   6.801
21305SOL     OW65921   5.289  10.850   6.296
21305SOL    HW165922   5.232  10.833   6.373
21305SOL    HW265923   5.226  10.861   6.222
21306SOL     OW65924   4.854   9.985   6.293
21306SOL    HW165925   4.890  10.073   6.269
21306SOL    HW265926   4.814  10.005   6.379
21307SOL     OW65927   5.499   9.911   5.822
21307SOL    HW165928   5.478   9.900   5.727
21307SOL    HW265929   5.446   9.841   5.861
21308SOL     OW65930   4.455  10.460   6.597
21308SOL    HW165931   4.392  10.500   6.661
21308SOL    HW265932   4.500  10.539   6.563
21309SOL     OW65933   4.595  10.069   7.382
21309SOL    HW165934   4.572  10.136   7.447
21309SOL    HW265935   4.615  10.122   7.302
21310SOL     OW65936   4.414  10.330   6.235
21310SOL    HW165937   4.476  10.310   6.307
21310SOL    HW265938   4.345  10.381   6.282
21311SOL     OW65939   4.444  10.448   7.382
21311SOL    HW165940   4.474  10.536   7.410
21311SOL    HW265941   4.358  10.469   7.341
21312SOL     OW65942   4.052  10.745   6.662
21312SOL    HW165943   3.975  10.713   6.610
21312SOL    HW265944   4.103  10.798   6.598
21313SOL     OW65945   5.195  10.797   6.974
21313SOL    HW165946   5.237  10.878   7.004
21313SOL    HW265947   5.124  10.784   7.040
21314SOL     OW65948   4.159   9.698   7.109
21314SOL    HW165949   4.229   9.632   7.097
21314SOL    HW265950   4.078   9.649   7.086
21315SOL     OW65951   5.338   9.756   6.325
21315SOL    HW165952   5.275   9.794   6.262
21315SOL    HW265953   5.321   9.810   6.404
21316SOL     OW65954   4.879  10.656   7.264
21316SOL    HW165955   4.911  10.660   7.355
21316SOL    HW265956   4.831  10.571   7.266
21317SOL     OW65957   3.952  10.772   6.106
21317SOL    HW165958   3.978  10.855   6.147
21317SOL    HW265959   3.902  10.726   6.175
21318SOL     OW65960   3.993  10.400   6.476
21318SOL    HW165961   3.982  10.322   6.533
21318SOL    HW265962   3.947  10.470   6.526
21319SOL     OW65963   4.288  10.304   5.702
21319SOL    HW165964   4.346  10.342   5.633
21319SOL    HW265965   4.330  10.339   5.783
21320SOL     OW65966   5.332   9.412   7.078
21320SOL    HW165967   5.329   9.484   7.014
21320SOL    HW265968   5.334   9.459   7.163
21321SOL     OW65969   3.834   9.963   6.150
21321SOL    HW165970   3.803   9.871   6.165
21321SOL    HW265971   3.830  10.002   6.240
21322SOL     OW65972   3.785  10.908   5.710
21322SOL    HW165973   3.770  10.812   5.719
21322SOL    HW265974   3.724  10.945   5.775
21323SOL     OW65975   5.400  10.245   6.226
21323SOL    HW165976   5.466  10.193   6.178
21323SOL    HW265977   5.367  10.305   6.157
21324SOL     OW65978   5.375  10.434   6.025
21324SOL    HW165979   5.466  10.423   5.995
21324SOL    HW265980   5.384  10.500   6.097
21325SOL     OW65981   3.840  10.044   7.171
21325SOL    HW165982   3.929  10.077   7.186
21325SOL    HW265983   3.786  10.124   7.183
21326SOL     OW65984   4.316  10.707   6.346
21326SOL    HW165985   4.283  10.615   6.357
21326SOL    HW265986   4.308  10.718   6.250
21327SOL     OW65987   5.028  10.545   7.012
21327SOL    HW165988   5.052  10.475   6.949
21327SOL    HW265989   5.085  10.523   7.089
21328SOL     OW65990   4.557   9.302   6.087
21328SOL    HW165991   4.583   9.395   6.078
21328SOL    HW265992   4.460   9.308   6.085
21329SOL     OW65993   3.901  10.287   6.835
21329SOL    HW165994   3.992  10.253   6.823
21329SOL    HW265995   3.846  10.216   6.799
21330SOL     OW65996   5.261  10.293   5.790
21330SOL    HW165997   5.183  10.246   5.825
21330SOL    HW265998   5.302  10.329   5.870
21331SOL     OW65999   4.918   0.002   7.215
21331SOL    HW166000   4.920   0.072   7.147
21331SOL    HW266001   4.938  11.024   7.162
21332SOL     OW66002   4.073   9.542   7.384
21332SOL    HW166003   4.129   9.620   7.385
21332SOL    HW266004   3.990   9.577   7.421
21333SOL     OW66005   5.197  10.735   6.550
21333SOL    HW166006   5.132  10.741   6.623
21333SOL    HW266007   5.172  10.649   6.510
21334SOL     OW66008   4.314  10.019   5.843
21334SOL    HW166009   4.319  10.107   5.804
21334SOL    HW266010   4.245  10.029   5.910
21335SOL     OW66011   4.991   9.644   6.499
21335SOL    HW166012   4.903   9.609   6.522
21335SOL    HW266013   5.048   9.609   6.571
21336SOL     OW66014   5.305  10.945   5.896
21336SOL    HW166015   5.325  11.037   5.917
21336SOL    HW266016   5.291  10.948   5.800
21337SOL     OW66017   4.534   9.945   7.039
21337SOL    HW166018   4.515   9.902   7.125
21337SOL    HW266019   4.488   9.884   6.978
21338SOL     OW66020   5.126   9.788   7.264
21338SOL    HW166021   5.121   9.835   7.349
21338SOL    HW266022   5.177   9.708   7.287
21339SOL     OW66023   4.685  10.208   7.163
21339SOL    HW166024   4.724  10.124   7.128
21339SOL    HW266025   4.644  10.245   7.083
21340SOL     OW66026   4.688   9.706   6.810
21340SOL    HW166027   4.600   9.718   6.849
21340SOL    HW266028   4.673   9.639   6.742
21341SOL     OW66029   4.766   9.992   5.992
21341SOL    HW166030   4.781  10.007   6.087
21341SOL    HW266031   4.681   9.944   5.993
21342SOL     OW66032   3.821  10.114   6.381
21342SOL    HW166033   3.895  10.117   6.446
21342SOL    HW266034   3.770  10.192   6.406
21343SOL     OW66035   3.795   0.059   7.164
21343SOL    HW166036   3.828   0.031   7.252
21343SOL    HW266037   3.700   0.044   7.172
21344SOL     OW66038   4.606   9.689   5.791
21344SOL    HW166039   4.645   9.738   5.717
21344SOL    HW266040   4.635   9.599   5.773
21345SOL     OW66041   5.446   9.895   7.430
21345SOL    HW166042   5.411   9.972   7.380
21345SOL    HW266043   5.465   9.834   7.357
21346SOL     OW66044   5.091  10.457   6.146
21346SOL    HW166045   5.173  10.463   6.094
21346SOL    HW266046   5.034  10.519   6.098
21347SOL     OW66047   4.270   9.514   6.478
21347SOL    HW166048   4.283   9.523   6.574
21347SOL    HW266049   4.267   9.606   6.448
21348SOL     OW66050   4.699  10.769   6.073
21348SOL    HW166051   4.626  10.816   6.029
21348SOL    HW266052   4.686  10.794   6.166
21349SOL     OW66053   4.073   0.009   6.464
21349SOL    HW166054   4.127  11.033   6.486
21349SOL    HW266055   4.139   0.082   6.462
21350SOL     OW66056   5.517  10.391   6.467
21350SOL    HW166057   5.471  10.365   6.386
21350SOL    HW266058   5.448  10.380   6.534
21351SOL     OW66059   4.933  10.868   7.084
21351SOL    HW166060   4.934  10.785   7.135
21351SOL    HW266061   4.878  10.842   7.008
21352SOL     OW66062   4.032  10.246   5.833
21352SOL    HW166063   4.115  10.269   5.789
21352SOL    HW266064   4.011  10.160   5.793
21353SOL     OW66065   5.201  10.057   6.303
21353SOL    HW166066   5.197  10.020   6.393
21353SOL    HW266067   5.275  10.120   6.309
21354SOL     OW66068   4.206  10.558   7.302
21354SOL    HW166069   4.157  10.570   7.217
21354SOL    HW266070   4.133  10.565   7.365
21355SOL     OW66071   4.769  11.065   5.807
21355SOL    HW166072   4.743  10.991   5.862
21355SOL    HW266073   4.822  11.024   5.737
21356SOL     OW66074   3.897   9.604   7.089
21356SOL    HW166075   3.816   9.650   7.117
21356SOL    HW266076   3.881   9.514   7.125
21357SOL     OW66077   5.344  10.689   5.675
21357SOL    HW166078   5.294  10.772   5.667
21357SOL    HW266079   5.278  10.622   5.649
21358SOL     OW66080   5.103   9.428   6.034
21358SOL    HW166081   5.101   9.391   5.945
21358SOL    HW266082   5.198   9.434   6.051
21359SOL     OW66083   4.120  10.007   6.047
21359SOL    HW166084   4.140   9.915   6.074
21359SOL    HW266085   4.024  10.010   6.063
21360SOL     OW66086   5.253   9.561   7.321
21360SOL    HW166087   5.256   9.574   7.419
21360SOL    HW266088   5.198   9.481   7.315
21361SOL     OW66089   4.349   9.445   5.682
21361SOL    HW166090   4.422   9.387   5.704
21361SOL    HW266091   4.301   9.393   5.614
21362SOL     OW66092   4.497   9.572   7.323
21362SOL    HW166093   4.576   9.515   7.334
21362SOL    HW266094   4.443   9.547   7.400
21363SOL     OW66095   4.604  10.823   6.765
21363SOL    HW166096   4.601  10.787   6.674
21363SOL    HW266097   4.674  10.773   6.807
21364SOL     OW66098   5.064   9.900   7.025
21364SOL    HW166099   5.104   9.868   7.108
21364SOL    HW266100   5.113   9.982   7.007
21365SOL     OW66101   4.563  10.705   6.523
21365SOL    HW166102   4.651  10.688   6.483
21365SOL    HW266103   4.508  10.726   6.446
21366SOL     OW66104   4.664   9.837   6.492
21366SOL    HW166105   4.642   9.821   6.397
21366SOL    HW266106   4.693   9.749   6.519
21367SOL     OW66107   4.283   9.350   6.080
21367SOL    HW166108   4.205   9.354   6.139
21367SOL    HW266109   4.269   9.432   6.027
21368SOL     OW66110   5.166  10.493   5.623
21368SOL    HW166111   5.195  10.422   5.685
21368SOL    HW266112   5.075  10.510   5.650
21369SOL     OW66113   4.001   9.357   5.772
21369SOL    HW166114   4.067   9.426   5.755
21369SOL    HW266115   4.058   9.287   5.810
21370SOL     OW66116   4.655   9.560   6.071
21370SOL    HW166117   4.638   9.617   5.995
21370SOL    HW266118   4.750   9.575   6.084
21371SOL     OW66119   4.817   9.995   7.062
21371SOL    HW166120   4.762   9.916   7.062
21371SOL    HW266121   4.908   9.960   7.055
21372SOL     OW66122   4.967  10.876   6.388
21372SOL    HW166123   4.923  10.955   6.354
21372SOL    HW266124   5.035  10.914   6.444
21373SOL     OW66125   4.196  10.472   6.317
21373SOL    HW166126   4.126  10.442   6.379
21373SOL    HW266127   4.159  10.445   6.231
21374SOL     OW66128   4.782   9.842   5.606
21374SOL    HW166129   4.740   9.928   5.595
21374SOL    HW266130   4.850   9.858   5.674
21375SOL     OW66131   3.792   9.861   6.984
21375SOL    HW166132   3.887   9.844   6.971
21375SOL    HW266133   3.794   9.941   7.041
21376SOL     OW66134   4.289   9.544   6.749
21376SOL    HW166135   4.332   9.460   6.769
21376SOL    HW266136   4.198   9.529   6.779
21377SOL     OW66137   4.600   9.772   6.247
21377SOL    HW166138   4.546   9.821   6.183
21377SOL    HW266139   4.608   9.685   6.206
21378SOL     OW66140   4.773   9.368   6.363
21378SOL    HW166141   4.717   9.362   6.284
21378SOL    HW266142   4.741   9.291   6.415
21379SOL     OW66143   5.146  10.490   6.467
21379SOL    HW166144   5.071  10.429   6.472
21379SOL    HW266145   5.171  10.482   6.374
21380SOL     OW66146   5.220   9.886   6.554
21380SOL    HW166147   5.156   9.816   6.573
21380SOL    HW266148   5.277   9.885   6.634
21381SOL     OW66149   5.552  10.129   5.985
21381SOL    HW166150   5.616  10.078   6.039
21381SOL    HW266151   5.538  10.068   5.911
21382SOL     OW66152   4.209  10.742   5.771
21382SOL    HW166153   4.134  10.707   5.823
21382SOL    HW266154   4.181  10.716   5.683
21383SOL     OW66155   5.390  10.594   6.246
21383SOL    HW166156   5.487  10.606   6.251
21383SOL    HW266157   5.356  10.684   6.262
21384SOL     OW66158   5.137   9.911   5.650
21384SOL    HW166159   5.086   9.881   5.729
21384SOL    HW266160   5.220   9.863   5.661
21385SOL     OW66161   4.254   9.556   5.914
21385SOL    HW166162   4.293   9.525   5.831
21385SOL    HW266163   4.219   9.642   5.886
21386SOL     OW66164   5.462  10.527   7.184
21386SOL    HW166165   5.554  10.503   7.164
21386SOL    HW266166   5.470  10.621   7.204
21387SOL     OW66167   4.789  10.675   6.943
21387SOL    HW166168   4.709  10.635   6.981
21387SOL    HW266169   4.860  10.618   6.978
21388SOL     OW66170   5.325  10.965   7.229
21388SOL    HW166171   5.330  11.037   7.164
21388SOL    HW266172   5.412  10.921   7.219
21389SOL     OW66173   4.839  10.513   6.699
21389SOL    HW166174   4.777  10.553   6.761
21389SOL    HW266175   4.818  10.558   6.616
21390SOL     OW66176   5.316  10.394   6.660
21390SOL    HW166177   5.321  10.459   6.733
21390SOL    HW266178   5.251  10.436   6.600
21391SOL     OW66179   4.644   9.439   6.986
21391SOL    HW166180   4.668   9.404   6.898
21391SOL    HW266181   4.730   9.470   7.019
21392SOL     OW66182   4.728  10.437   7.330
21392SOL    HW166183   4.634  10.455   7.345
21392SOL    HW266184   4.724  10.360   7.270
21393SOL     OW66185   4.423  10.378   5.930
21393SOL    HW166186   4.412  10.350   6.023
21393SOL    HW266187   4.502  10.326   5.905
21394SOL     OW66188   4.145  10.121   6.847
21394SOL    HW166189   4.219  10.125   6.911
21394SOL    HW266190   4.106  10.034   6.865
21395SOL     OW66191   5.001   9.701   6.854
21395SOL    HW166192   5.021   9.776   6.914
21395SOL    HW266193   4.914   9.724   6.820
21396SOL     OW66194   3.781  10.875   6.937
21396SOL    HW166195   3.765  10.943   6.871
21396SOL    HW266196   3.879  10.874   6.944
21397SOL     OW66197   4.091  10.386   6.083
21397SOL    HW166198   4.122  10.451   6.019
21397SOL    HW266199   4.080  10.307   6.027
21398SOL     OW66200   4.263   9.860   6.429
21398SOL    HW166201   4.297   9.918   6.356
21398SOL    HW266202   4.324   9.880   6.502
21399SOL     OW66203   4.965  10.660   5.976
21399SOL    HW166204   5.021  10.728   6.017
21399SOL    HW266205   4.876  10.693   5.996
21400SOL     OW66206   5.031  10.766   6.763
21400SOL    HW166207   5.089  10.778   6.841
21400SOL    HW266208   4.977  10.690   6.788
21401SOL     OW66209   5.307   9.918   6.058
21401SOL    HW166210   5.259   9.977   6.119
21401SOL    HW266211   5.345   9.980   5.995
21402SOL     OW66212   4.053  10.826   6.915
21402SOL    HW166213   4.042  10.795   6.822
21402SOL    HW266214   4.150  10.837   6.916
21403SOL     OW66215   4.167  10.029   7.214
21403SOL    HW166216   4.224  10.081   7.154
21403SOL    HW266217   4.199   9.939   7.198
21404SOL     OW66218   5.351  10.088   7.265
21404SOL    HW166219   5.257  10.110   7.261
21404SOL    HW266220   5.388  10.135   7.187
21405SOL     OW66221   4.718   9.420   7.341
21405SOL    HW166222   4.781   9.492   7.323
21405SOL    HW266223   4.768   9.344   7.307
21406SOL     OW66224   4.222   9.314   7.348
21406SOL    HW166225   4.180   9.263   7.277
21406SOL    HW266226   4.166   9.394   7.349
21407SOL     OW66227   4.318  10.210   6.623
21407SOL    HW166228   4.353  10.301   6.620
21407SOL    HW266229   4.269  10.207   6.706
21408SOL     OW66230   5.081  10.182   6.606
21408SOL    HW166231   5.000  10.141   6.574
21408SOL    HW266232   5.138  10.105   6.619
21409SOL     OW66233   4.947   9.836   5.849
21409SOL    HW166234   4.955   9.766   5.917
21409SOL    HW266235   4.882   9.895   5.893
21410SOL     OW66236   4.019   9.514   6.831
21410SOL    HW166237   3.973   9.540   6.912
21410SOL    HW266238   3.998   9.418   6.826
21411SOL     OW66239   3.758  10.611   6.855
21411SOL    HW166240   3.787  10.558   6.931
21411SOL    HW266241   3.759  10.702   6.890
21412SOL     OW66242   4.443   9.964   6.628
21412SOL    HW166243   4.523   9.951   6.575
21412SOL    HW266244   4.414  10.055   6.608
21413SOL     OW66245   5.486  10.255   7.429
21413SOL    HW166246   5.442  10.192   7.370
21413SOL    HW266247   5.418  10.266   7.497
21414SOL     OW66248   4.044   9.378   6.189
21414SOL    HW166249   4.003   9.463   6.214
21414SOL    HW266250   4.045   9.333   6.276
21415SOL     OW66251   5.313   9.684   5.934
21415SOL    HW166252   5.349   9.616   5.992
21415SOL    HW266253   5.306   9.763   5.993
21416SOL     OW66254   4.780  10.065   6.553
21416SOL    HW166255   4.762  10.079   6.648
21416SOL    HW266256   4.745   9.974   6.541
21417SOL     OW66257   4.712  10.859   7.302
21417SOL    HW166258   4.715  10.918   7.226
21417SOL    HW266259   4.757  10.779   7.269
21418SOL     OW66260   5.563  10.835   7.189
21418SOL    HW166261   5.592  10.846   7.096
21418SOL    HW266262   5.648  10.838   7.237
21419SOL     OW66263   4.075  10.201   7.390
21419SOL    HW166264   4.157  10.231   7.432
21419SOL    HW266265   4.107  10.126   7.336
21420SOL     OW66266   5.225   9.565   5.707
21420SOL    HW166267   5.159   9.502   5.739
21420SOL    HW266268   5.263   9.602   5.789
21421SOL     OW66269   5.008  10.147   5.610
21421SOL    HW166270   5.050  10.061   5.628
21421SOL    HW266271   5.045  10.167   5.522
21422SOL     OW66272   4.808  10.638   6.437
21422SOL    HW166273   4.813  10.562   6.375
21422SOL    HW266274   4.874  10.701   6.404
21423SOL     OW66275   4.008  10.121   6.574
21423SOL    HW166276   4.102  10.137   6.559
21423SOL    HW266277   4.009  10.028   6.605
21424SOL     OW66278   4.049   9.850   6.588
21424SOL    HW166279   4.018   9.758   6.576
21424SOL    HW266280   4.115   9.858   6.516
21425SOL     OW66281   4.878   9.679   7.274
21425SOL    HW166282   4.833   9.731   7.343
21425SOL    HW266283   4.968   9.716   7.278
21426SOL     OW66284   4.894   9.519   7.061
21426SOL    HW166285   4.892   9.579   7.138
21426SOL    HW266286   4.940   9.572   6.994
21427SOL     OW66287   3.725  10.627   5.757
21427SOL    HW166288   3.631  10.649   5.737
21427SOL    HW266289   3.717  10.541   5.801
21428SOL     OW66290   4.236  10.903   6.519
21428SOL    HW166291   4.310  10.964   6.521
21428SOL    HW266292   4.272  10.830   6.464
21429SOL     OW66293   4.705  10.083   6.820
21429SOL    HW166294   4.757  10.052   6.896
21429SOL    HW266295   4.616  10.054   6.844
21430SOL     OW66296   3.769   9.841   6.695
21430SOL    HW166297   3.849   9.823   6.644
21430SOL    HW266298   3.801   9.836   6.786
21431SOL     OW66299   3.944   9.830   7.313
21431SOL    HW166300   3.995   9.785   7.243
21431SOL    HW266301   3.888   9.891   7.262
21432SOL     OW66302   5.092  10.207   7.237
21432SOL    HW166303   5.134  10.295   7.240
21432SOL    HW266304   5.086  10.191   7.141
21433SOL     OW66305   4.525   9.873   5.972
21433SOL    HW166306   4.540   9.807   5.900
21433SOL    HW266307   4.452   9.925   5.935
21434SOL     OW66308   5.378   9.914   6.780
21434SOL    HW166309   5.359   9.849   6.849
21434SOL    HW266310   5.464   9.884   6.746
21435SOL     OW66311   3.948  10.836   7.314
21435SOL    HW166312   3.937  10.905   7.381
21435SOL    HW266313   3.965  10.757   7.369
21436SOL     OW66314   4.404   9.805   6.852
21436SOL    HW166315   4.360   9.724   6.822
21436SOL    HW266316   4.406   9.861   6.771
21437SOL     OW66317   4.167   9.785   5.786
21437SOL    HW166318   4.236   9.853   5.793
21437SOL    HW266319   4.088   9.840   5.773
21438SOL     OW66320   3.839  10.440   7.049
21438SOL    HW166321   3.858  10.387   7.129
21438SOL    HW266322   3.860  10.377   6.977
21439SOL     OW66323   5.045  10.343   6.824
21439SOL    HW166324   5.068  10.292   6.744
21439SOL    HW266325   4.969  10.395   6.791
21440SOL     OW66326   5.030  10.180   5.881
21440SOL    HW166327   4.949  10.146   5.919
21440SOL    HW266328   5.012  10.180   5.785
21441SOL     OW66329   5.506  11.029   6.740
21441SOL    HW166330   5.543  11.044   6.651
21441SOL    HW266331   5.470  10.938   6.731
21442SOL     OW66332   4.971  11.026   6.676
21442SOL    HW166333   5.060  11.043   6.640
21442SOL    HW266334   4.977  10.932   6.700
21443SOL     OW66335   3.833  10.578   6.600
21443SOL    HW166336   3.802  10.588   6.693
21443SOL    HW266337   3.760  10.526   6.562
21444SOL     OW66338   4.420  10.964   7.309
21444SOL    HW166339   4.361  11.040   7.323
21444SOL    HW266340   4.495  11.003   7.265
21445SOL     OW66341   5.402   9.451   6.078
21445SOL    HW166342   5.478   9.437   6.020
21445SOL    HW266343   5.404   9.371   6.134
21446SOL     OW66344   5.119  10.875   6.075
21446SOL    HW166345   5.190  10.885   6.008
21446SOL    HW266346   5.077  10.962   6.068
21447SOL     OW66347   3.869   0.012   7.423
21447SOL    HW166348   3.827  11.036   7.465
21447SOL    HW266349   3.926   0.044   7.495
21448SOL     OW66350   4.983  10.216   6.246
21448SOL    HW166351   5.062  10.161   6.266
21448SOL    HW266352   5.024  10.295   6.205
21449SOL     OW66353   4.515  10.580   7.004
21449SOL    HW166354   4.489  10.627   7.086
21449SOL    HW266355   4.433  10.588   6.953
21450SOL     OW66356   4.390  10.931   5.728
21450SOL    HW166357   4.410  10.922   5.633
21450SOL    HW266358   4.331  10.855   5.746
21451SOL     OW66359   5.555   9.466   6.554
21451SOL    HW166360   5.582   9.380   6.517
21451SOL    HW266361   5.470   9.485   6.509
21452SOL     OW66362   3.964   9.615   6.288
21452SOL    HW166363   3.878   9.657   6.267
21452SOL    HW266364   3.970   9.628   6.384
21453SOL     OW66365   4.917  10.932   5.615
21453SOL    HW166366   4.941  10.840   5.633
21453SOL    HW266367   4.858  10.928   5.538
21454SOL     OW66368   4.559  10.322   6.941
21454SOL    HW166369   4.597  10.313   6.853
21454SOL    HW266370   4.550  10.418   6.953
21455SOL     OW66371   4.635  10.229   5.866
21455SOL    HW166372   4.709  10.262   5.812
21455SOL    HW266373   4.669  10.147   5.903
21456SOL     OW66374   5.240  10.939   5.635
21456SOL    HW166375   5.148  10.969   5.647
21456SOL    HW266376   5.254  10.954   5.541
21457SOL     OW66377   4.070  10.589   7.077
21457SOL    HW166378   4.053  10.663   7.017
21457SOL    HW266379   3.992  10.532   7.063
21458SOL     OW66380   5.335  10.595   6.868
21458SOL    HW166381   5.409  10.585   6.929
21458SOL    HW266382   5.280  10.663   6.912
21459SOL     OW66383   4.779  10.412   6.300
21459SOL    HW166384   4.708  10.356   6.337
21459SOL    HW266385   4.836  10.347   6.258
21460SOL     OW66386   4.755   9.534   6.574
21460SOL    HW166387   4.748   9.487   6.488
21460SOL    HW266388   4.761   9.459   6.636
21461SOL     OW66389   4.333  10.811   6.090
21461SOL    HW166390   4.350  10.770   6.004
21461SOL    HW266391   4.282  10.889   6.065
21462SOL     OW66392   5.437   9.691   6.966
21462SOL    HW166393   5.507   9.760   6.963
21462SOL    HW266394   5.479   9.621   6.912
21463SOL     OW66395   3.977  10.661   5.871
21463SOL    HW166396   3.882  10.669   5.852
21463SOL    HW266397   3.981  10.701   5.961
21464SOL     OW66398   3.855  10.320   7.289
21464SOL    HW166399   3.780  10.306   7.350
21464SOL    HW266400   3.929  10.278   7.337
21465SOL     OW66401   4.393   9.505   7.077
21465SOL    HW166402   4.480   9.480   7.038
21465SOL    HW266403   4.422   9.542   7.163
21466SOL     OW66404   3.818   9.665   5.633
21466SOL    HW166405   3.727   9.649   5.606
21466SOL    HW266406   3.845   9.735   5.571
21467SOL     OW66407   5.166  10.158   6.969
21467SOL    HW166408   5.113  10.221   6.916
21467SOL    HW266409   5.256  10.188   6.948
21468SOL     OW66410   3.767   9.467   5.867
21468SOL    HW166411   3.766   9.558   5.836
21468SOL    HW266412   3.855   9.437   5.837
21469SOL     OW66413   4.928  10.635   5.700
21469SOL    HW166414   4.839  10.599   5.706
21469SOL    HW266415   4.954  10.641   5.794
21470SOL     OW66416   4.351  10.143   7.017
21470SOL    HW166417   4.410  10.218   7.001
21470SOL    HW266418   4.416  10.071   7.025
21471SOL     OW66419   5.229  11.063   6.552
21471SOL    HW166420   5.246   0.019   6.476
21471SOL    HW266421   5.318  11.046   6.585
21472SOL     OW66422   4.456   9.842   7.268
21472SOL    HW166423   4.488   9.903   7.337
21472SOL    HW266424   4.472   9.753   7.304
21473SOL     OW66425   5.205  10.457   7.220
21473SOL    HW166426   5.190  10.481   7.313
21473SOL    HW266427   5.302  10.475   7.211
21474SOL     OW66428   5.414  10.182   6.819
21474SOL    HW166429   5.404  10.090   6.789
21474SOL    HW266430   5.378  10.235   6.746
21475SOL     OW66431   4.931   9.650   6.052
21475SOL    HW166432   4.988   9.571   6.045
21475SOL    HW266433   4.972   9.696   6.128
21476SOL     OW66434   4.333  10.042   6.242
21476SOL    HW166435   4.370  10.131   6.231
21476SOL    HW266436   4.254  10.046   6.185
21477SOL     OW66437   5.488   9.676   7.225
21477SOL    HW166438   5.458   9.688   7.133
21477SOL    HW266439   5.412   9.632   7.265
21478SOL     OW66440   5.464  10.239   7.079
21478SOL    HW166441   5.474  10.335   7.079
21478SOL    HW266442   5.463  10.219   6.983
21479SOL     OW66443   4.561  10.672   5.619
21479SOL    HW166444   4.540  10.689   5.713
21479SOL    HW266445   4.605  10.753   5.590
21480SOL     OW66446   4.605  10.252   6.425
21480SOL    HW166447   4.658  10.183   6.467
21480SOL    HW266448   4.582  10.311   6.498
21481SOL     OW66449   4.825  10.322   5.683
21481SOL    HW166450   4.788  10.365   5.604
21481SOL    HW266451   4.884  10.255   5.644
21482SOL     OW66452   5.550  10.933   6.459
21482SOL    HW166453   5.488  10.895   6.395
21482SOL    HW266454   5.573  10.855   6.513
21483SOL     OW66455   3.978  10.615   7.453
21483SOL    HW166456   3.902  10.567   7.416
21483SOL    HW266457   3.959  10.612   7.548
21484SOL     OW66458   3.820  10.563   6.245
21484SOL    HW166459   3.841  10.523   6.330
21484SOL    HW266460   3.863  10.502   6.183
21485SOL     OW66461   4.400  10.713   7.204
21485SOL    HW166462   4.329  10.661   7.244
21485SOL    HW266463   4.390  10.800   7.246
21486SOL     OW66464   5.538   9.481   6.819
21486SOL    HW166465   5.556   9.386   6.826
21486SOL    HW266466   5.544   9.494   6.722
21487SOL     OW66467   4.159   9.745   6.121
21487SOL    HW166468   4.208   9.677   6.074
21487SOL    HW266469   4.115   9.696   6.192
21488SOL     OW66470   5.422  10.780   6.686
21488SOL    HW166471   5.342  10.772   6.630
21488SOL    HW266472   5.407  10.707   6.749
21489SOL     OW66473   4.061   9.846   6.877
21489SOL    HW166474   4.132   9.804   6.929
21489SOL    HW266475   4.078   9.816   6.786
21490SOL     OW66476   4.525  10.903   6.288
21490SOL    HW166477   4.530  10.972   6.218
21490SOL    HW266478   4.443  10.856   6.267
21491SOL     OW66479   5.156   9.565   6.689
21491SOL    HW166480   5.182   9.481   6.729
21491SOL    HW266481   5.108   9.610   6.761
21492SOL     OW66482   4.749   9.318   6.752
21492SOL    HW166483   4.685   9.254   6.717
21492SOL    HW266484   4.834   9.271   6.742
21493SOL     OW66485   4.518  10.645   5.892
21493SOL    HW166486   4.476  10.558   5.899
21493SOL    HW266487   4.590  10.636   5.956
21494SOL     OW66488   4.327  10.842   6.854
21494SOL    HW166489   4.332  10.930   6.892
21494SOL    HW266490   4.419  10.831   6.823
21495SOL     OW66491   5.046   9.341   5.766
21495SOL    HW166492   5.055   9.286   5.687
21495SOL    HW266493   4.958   9.310   5.799
21496SOL     OW66494   5.034   9.785   6.270
21496SOL    HW166495   4.971   9.859   6.266
21496SOL    HW266496   5.010   9.741   6.354
21497SOL     OW66497   5.317   9.514   6.446
21497SOL    HW166498   5.243   9.528   6.507
21497SOL    HW266499   5.319   9.597   6.396
21498SOL     OW66500   3.774  10.364   5.880
21498SOL    HW166501   3.868  10.348   5.860
21498SOL    HW266502   3.751  10.280   5.926
21499SOL     OW66503   3.963   9.951   7.579
21499SOL    HW166504   3.873   9.930   7.609
21499SOL    HW266505   3.961   9.929   7.484
21500SOL     OW66506   3.938   9.603   8.450
21500SOL    HW166507   3.963   9.571   8.539
21500SOL    HW266508   3.855   9.554   8.435
21501SOL     OW66509   3.723   9.720   8.072
21501SOL    HW166510   3.641   9.735   8.125
21501SOL    HW266511   3.702   9.636   8.030
21502SOL     OW66512   4.274  10.578   8.610
21502SOL    HW166513   4.189  10.587   8.567
21502SOL    HW266514   4.279  10.659   8.663
21503SOL     OW66515   5.279  10.837   8.163
21503SOL    HW166516   5.219  10.839   8.240
21503SOL    HW266517   5.218  10.845   8.087
21504SOL     OW66518   4.848   9.977   8.166
21504SOL    HW166519   4.885  10.063   8.136
21504SOL    HW266520   4.799  10.004   8.245
21505SOL     OW66521   5.503   9.920   7.692
21505SOL    HW166522   5.480   9.907   7.598
21505SOL    HW266523   5.466   9.840   7.732
21506SOL     OW66524   4.464  10.461   8.454
21506SOL    HW166525   4.392  10.495   8.510
21506SOL    HW266526   4.506  10.544   8.426
21507SOL     OW66527   4.587  10.105   9.257
21507SOL    HW166528   4.577  10.173   9.325
21507SOL    HW266529   4.625  10.153   9.182
21508SOL     OW66530   4.415  10.338   8.091
21508SOL    HW166531   4.468  10.312   8.168
21508SOL    HW266532   4.343  10.390   8.132
21509SOL     OW66533   4.444  10.452   9.245
21509SOL    HW166534   4.471  10.537   9.284
21509SOL    HW266535   4.357  10.474   9.207
21510SOL     OW66536   4.045  10.760   8.528
21510SOL    HW166537   3.973  10.722   8.475
21510SOL    HW266538   4.101  10.805   8.463
21511SOL     OW66539   5.183  10.786   8.833
21511SOL    HW166540   5.242  10.859   8.857
21511SOL    HW266541   5.112  10.796   8.898
21512SOL     OW66542   4.154   9.726   8.945
21512SOL    HW166543   4.231   9.667   8.953
21512SOL    HW266544   4.079   9.665   8.953
21513SOL     OW66545   5.342   9.753   8.182
21513SOL    HW166546   5.278   9.766   8.110
21513SOL    HW266547   5.329   9.832   8.235
21514SOL     OW66548   4.864  10.643   9.104
21514SOL    HW166549   4.896  10.661   9.193
21514SOL    HW266550   4.809  10.563   9.121
21515SOL     OW66551   3.970  10.765   7.963
21515SOL    HW166552   3.984  10.855   7.996
21515SOL    HW266553   3.913  10.724   8.031
21516SOL     OW66554   3.996  10.395   8.354
21516SOL    HW166555   3.995  10.328   8.422
21516SOL    HW266556   3.943  10.467   8.395
21517SOL     OW66557   4.296  10.299   7.559
21517SOL    HW166558   4.351  10.342   7.491
21517SOL    HW266559   4.335  10.337   7.640
21518SOL     OW66560   5.336   9.415   8.945
21518SOL    HW166561   5.339   9.487   8.880
21518SOL    HW266562   5.343   9.462   9.029
21519SOL     OW66563   3.851   9.959   8.019
21519SOL    HW166564   3.810   9.871   8.028
21519SOL    HW266565   3.833   9.999   8.106
21520SOL     OW66566   3.784  10.898   7.554
21520SOL    HW166567   3.773  10.802   7.564
21520SOL    HW266568   3.722  10.932   7.619
21521SOL     OW66569   5.414  10.245   8.103
21521SOL    HW166570   5.478  10.188   8.058
21521SOL    HW266571   5.375  10.292   8.028
21522SOL     OW66572   5.381  10.425   7.890
21522SOL    HW166573   5.472  10.425   7.857
21522SOL    HW266574   5.384  10.493   7.960
21523SOL     OW66575   3.847  10.046   9.033
21523SOL    HW166576   3.938  10.077   9.050
21523SOL    HW266577   3.795  10.124   9.054
21524SOL     OW66578   4.313  10.703   8.211
21524SOL    HW166579   4.282  10.610   8.218
21524SOL    HW266580   4.304  10.717   8.114
21525SOL     OW66581   5.030  10.492   8.857
21525SOL    HW166582   5.116  10.460   8.889
21525SOL    HW266583   4.996  10.530   8.939
21526SOL     OW66584   4.559   9.302   7.936
21526SOL    HW166585   4.590   9.394   7.936
21526SOL    HW266586   4.463   9.313   7.949
21527SOL     OW66587   3.905  10.288   8.698
21527SOL    HW166588   3.993  10.249   8.699
21527SOL    HW266589   3.846  10.213   8.678
21528SOL     OW66590   5.282  10.274   7.631
21528SOL    HW166591   5.204  10.225   7.660
21528SOL    HW266592   5.319  10.305   7.715
21529SOL     OW66593   4.912   0.004   9.077
21529SOL    HW166594   4.918   0.072   9.007
21529SOL    HW266595   4.937  11.025   9.028
21530SOL     OW66596   4.060   9.553   9.227
21530SOL    HW166597   4.128   9.603   9.273
21530SOL    HW266598   3.980   9.577   9.279
21531SOL     OW66599   5.198  10.729   8.417
21531SOL    HW166600   5.130  10.741   8.485
21531SOL    HW266601   5.166  10.650   8.370
21532SOL     OW66602   4.312  10.031   7.710
21532SOL    HW166603   4.314  10.117   7.665
21532SOL    HW266604   4.241  10.043   7.775
21533SOL     OW66605   4.984   9.656   8.374
21533SOL    HW166606   4.896   9.619   8.395
21533SOL    HW266607   5.043   9.605   8.433
21534SOL     OW66608   5.302  10.955   7.759
21534SOL    HW166609   5.351  11.034   7.780
21534SOL    HW266610   5.299  10.957   7.661
21535SOL     OW66611   4.535   9.949   8.901
21535SOL    HW166612   4.518   9.908   8.989
21535SOL    HW266613   4.485   9.887   8.843
21536SOL     OW66614   5.123   9.794   9.122
21536SOL    HW166615   5.133   9.843   9.206
21536SOL    HW266616   5.172   9.711   9.142
21537SOL     OW66617   4.696  10.210   9.025
21537SOL    HW166618   4.731  10.123   8.998
21537SOL    HW266619   4.647  10.238   8.945
21538SOL     OW66620   4.701   9.714   8.680
21538SOL    HW166621   4.612   9.711   8.717
21538SOL    HW266622   4.700   9.645   8.613
21539SOL     OW66623   4.774   9.991   7.863
21539SOL    HW166624   4.781  10.000   7.960
21539SOL    HW266625   4.690   9.942   7.853
21540SOL     OW66626   3.818  10.123   8.261
21540SOL    HW166627   3.853  10.181   8.330
21540SOL    HW266628   3.741  10.174   8.232
21541SOL     OW66629   3.790   0.061   9.031
21541SOL    HW166630   3.829   0.029   9.115
21541SOL    HW266631   3.695   0.057   9.050
21542SOL     OW66632   4.611   9.664   7.670
21542SOL    HW166633   4.642   9.723   7.600
21542SOL    HW266634   4.646   9.580   7.640
21543SOL     OW66635   5.457   9.889   9.293
21543SOL    HW166636   5.407   9.959   9.247
21543SOL    HW266637   5.482   9.833   9.218
21544SOL     OW66638   5.072  10.456   8.012
21544SOL    HW166639   5.148  10.439   7.955
21544SOL    HW266640   5.025  10.523   7.960
21545SOL     OW66641   4.268   9.499   8.348
21545SOL    HW166642   4.269   9.518   8.443
21545SOL    HW266643   4.261   9.586   8.307
21546SOL     OW66644   4.713  10.755   7.925
21546SOL    HW166645   4.649  10.803   7.869
21546SOL    HW266646   4.690  10.786   8.014
21547SOL     OW66647   4.069   0.024   8.337
21547SOL    HW166648   4.119  11.043   8.355
21547SOL    HW266649   4.141   0.090   8.329
21548SOL     OW66650   5.524  10.392   8.324
21548SOL    HW166651   5.488  10.371   8.237
21548SOL    HW266652   5.467  10.339   8.381
21549SOL     OW66653   4.942  10.864   8.954
21549SOL    HW166654   4.915  10.795   9.016
21549SOL    HW266655   4.883  10.846   8.880
21550SOL     OW66656   4.034  10.245   7.689
21550SOL    HW166657   4.109  10.269   7.633
21550SOL    HW266658   4.000  10.167   7.644
21551SOL     OW66659   5.192  10.077   8.176
21551SOL    HW166660   5.192  10.022   8.255
21551SOL    HW266661   5.278  10.121   8.179
21552SOL     OW66662   4.209  10.554   9.162
21552SOL    HW166663   4.155  10.567   9.081
21552SOL    HW266664   4.140  10.561   9.231
21553SOL     OW66665   4.805  11.089   7.699
21553SOL    HW166666   4.747  11.029   7.746
21553SOL    HW266667   4.819  11.045   7.614
21554SOL     OW66668   3.895   9.601   8.958
21554SOL    HW166669   3.812   9.639   8.990
21554SOL    HW266670   3.891   9.512   8.997
21555SOL     OW66671   5.355  10.692   7.537
21555SOL    HW166672   5.315  10.779   7.523
21555SOL    HW266673   5.285  10.630   7.508
21556SOL     OW66674   4.127  10.005   7.915
21556SOL    HW166675   4.155   9.913   7.931
21556SOL    HW266676   4.032   9.999   7.936
21557SOL     OW66677   5.255   9.571   9.175
21557SOL    HW166678   5.258   9.572   9.274
21557SOL    HW266679   5.197   9.494   9.160
21558SOL     OW66680   4.342   9.438   7.550
21558SOL    HW166681   4.422   9.387   7.563
21558SOL    HW266682   4.296   9.385   7.481
21559SOL     OW66683   4.494   9.577   9.181
21559SOL    HW166684   4.571   9.518   9.196
21559SOL    HW266685   4.444   9.563   9.263
21560SOL     OW66686   4.605  10.821   8.625
21560SOL    HW166687   4.602  10.786   8.534
21560SOL    HW266688   4.677  10.771   8.665
21561SOL     OW66689   5.068   9.905   8.880
21561SOL    HW166690   5.098   9.865   8.964
21561SOL    HW266691   5.130   9.979   8.870
21562SOL     OW66692   4.562  10.705   8.382
21562SOL    HW166693   4.647  10.695   8.335
21562SOL    HW266694   4.498  10.715   8.310
21563SOL     OW66695   4.668   9.827   8.364
21563SOL    HW166696   4.648   9.818   8.268
21563SOL    HW266697   4.702   9.739   8.384
21564SOL     OW66698   4.290   9.353   7.950
21564SOL    HW166699   4.207   9.358   8.002
21564SOL    HW266700   4.282   9.435   7.896
21565SOL     OW66701   5.167  10.497   7.485
21565SOL    HW166702   5.197  10.420   7.536
21565SOL    HW266703   5.075  10.507   7.512
21566SOL     OW66704   4.005   9.357   7.641
21566SOL    HW166705   4.062   9.428   7.608
21566SOL    HW266706   4.070   9.295   7.678
21567SOL     OW66707   4.656   9.559   7.943
21567SOL    HW166708   4.638   9.607   7.860
21567SOL    HW266709   4.752   9.571   7.950
21568SOL     OW66710   4.815   9.993   8.916
21568SOL    HW166711   4.758   9.915   8.920
21568SOL    HW266712   4.905   9.955   8.915
21569SOL     OW66713   4.964  10.873   8.249
21569SOL    HW166714   4.909  10.942   8.209
21569SOL    HW266715   5.006  10.922   8.320
21570SOL     OW66716   4.196  10.466   8.184
21570SOL    HW166717   4.122  10.443   8.244
21570SOL    HW266718   4.159  10.442   8.097
21571SOL     OW66719   4.785   9.846   7.465
21571SOL    HW166720   4.736   9.929   7.453
21571SOL    HW266721   4.849   9.867   7.535
21572SOL     OW66722   3.794   9.860   8.846
21572SOL    HW166723   3.890   9.844   8.833
21572SOL    HW266724   3.796   9.938   8.906
21573SOL     OW66725   4.279   9.557   8.624
21573SOL    HW166726   4.328   9.484   8.665
21573SOL    HW266727   4.189   9.540   8.656
21574SOL     OW66728   4.599   9.777   8.114
21574SOL    HW166729   4.550   9.816   8.041
21574SOL    HW266730   4.622   9.689   8.078
21575SOL     OW66731   4.692   9.395   8.223
21575SOL    HW166732   4.685   9.360   8.133
21575SOL    HW266733   4.697   9.312   8.275
21576SOL     OW66734   5.150  10.487   8.325
21576SOL    HW166735   5.077  10.440   8.284
21576SOL    HW266736   5.211  10.498   8.250
21577SOL     OW66737   5.172   9.897   8.454
21577SOL    HW166738   5.122   9.814   8.448
21577SOL    HW266739   5.249   9.872   8.507
21578SOL     OW66740   5.563  10.136   7.856
21578SOL    HW166741   5.622  10.075   7.905
21578SOL    HW266742   5.537  10.079   7.782
21579SOL     OW66743   4.208  10.748   7.602
21579SOL    HW166744   4.138  10.704   7.653
21579SOL    HW266745   4.196  10.708   7.515
21580SOL     OW66746   5.397  10.592   8.118
21580SOL    HW166747   5.492  10.610   8.114
21580SOL    HW266748   5.358  10.681   8.131
21581SOL     OW66749   5.114   9.910   7.512
21581SOL    HW166750   5.070   9.870   7.589
21581SOL    HW266751   5.205   9.880   7.523
21582SOL     OW66752   4.247   9.554   7.779
21582SOL    HW166753   4.290   9.517   7.700
21582SOL    HW266754   4.218   9.639   7.743
21583SOL     OW66755   5.461  10.517   9.048
21583SOL    HW166756   5.553  10.497   9.024
21583SOL    HW266757   5.465  10.609   9.076
21584SOL     OW66758   4.809  10.674   8.783
21584SOL    HW166759   4.722  10.646   8.819
21584SOL    HW266760   4.869  10.609   8.823
21585SOL     OW66761   5.315  10.967   9.083
21585SOL    HW166762   5.326  11.045   9.025
21585SOL    HW266763   5.402  10.923   9.077
21586SOL     OW66764   4.859  10.504   8.548
21586SOL    HW166765   4.792  10.549   8.602
21586SOL    HW266766   4.850  10.553   8.464
21587SOL     OW66767   5.289  10.383   8.530
21587SOL    HW166768   5.322  10.456   8.587
21587SOL    HW266769   5.257  10.430   8.450
21588SOL     OW66770   4.632   9.418   8.851
21588SOL    HW166771   4.666   9.384   8.766
21588SOL    HW266772   4.713   9.454   8.892
21589SOL     OW66773   4.722  10.435   9.189
21589SOL    HW166774   4.629  10.455   9.214
21589SOL    HW266775   4.711  10.359   9.129
21590SOL     OW66776   4.434  10.387   7.783
21590SOL    HW166777   4.418  10.363   7.875
21590SOL    HW266778   4.513  10.332   7.763
21591SOL     OW66779   4.158  10.115   8.703
21591SOL    HW166780   4.217  10.124   8.780
21591SOL    HW266781   4.109  10.034   8.723
21592SOL     OW66782   5.006   9.696   8.716
21592SOL    HW166783   5.029   9.771   8.774
21592SOL    HW266784   4.915   9.717   8.688
21593SOL     OW66785   3.787  10.880   8.801
21593SOL    HW166786   3.781  10.936   8.724
21593SOL    HW266787   3.883  10.875   8.817
21594SOL     OW66788   4.088  10.379   7.946
21594SOL    HW166789   4.092  10.456   7.888
21594SOL    HW266790   4.080  10.306   7.881
21595SOL     OW66791   4.255   9.861   8.280
21595SOL    HW166792   4.276   9.920   8.205
21595SOL    HW266793   4.340   9.854   8.325
21596SOL     OW66794   4.968  10.660   7.841
21596SOL    HW166795   5.024  10.730   7.880
21596SOL    HW266796   4.878  10.694   7.861
21597SOL     OW66797   5.025  10.765   8.621
21597SOL    HW166798   5.089  10.783   8.694
21597SOL    HW266799   4.947  10.734   8.670
21598SOL     OW66800   5.313   9.931   7.933
21598SOL    HW166801   5.254   9.994   7.976
21598SOL    HW266802   5.340   9.977   7.852
21599SOL     OW66803   4.061  10.822   8.783
21599SOL    HW166804   4.047  10.798   8.689
21599SOL    HW266805   4.157  10.838   8.781
21600SOL     OW66806   4.148  10.040   9.062
21600SOL    HW166807   4.217  10.082   9.008
21600SOL    HW266808   4.168   9.946   9.052
21601SOL     OW66809   5.360  10.073   9.129
21601SOL    HW166810   5.268  10.105   9.128
21601SOL    HW266811   5.398  10.119   9.051
21602SOL     OW66812   4.711   9.419   9.202
21602SOL    HW166813   4.764   9.495   9.175
21602SOL    HW266814   4.765   9.346   9.166
21603SOL     OW66815   4.217   9.332   9.198
21603SOL    HW166816   4.179   9.271   9.133
21603SOL    HW266817   4.151   9.404   9.198
21604SOL     OW66818   5.063  10.155   8.540
21604SOL    HW166819   4.993  10.135   8.477
21604SOL    HW266820   5.126  10.085   8.516
21605SOL     OW66821   4.951   9.834   7.719
21605SOL    HW166822   4.953   9.754   7.776
21605SOL    HW266823   4.898   9.893   7.775
21606SOL     OW66824   4.015   9.512   8.696
21606SOL    HW166825   3.972   9.534   8.781
21606SOL    HW266826   3.998   9.416   8.691
21607SOL     OW66827   3.760  10.615   8.726
21607SOL    HW166828   3.788  10.558   8.800
21607SOL    HW266829   3.761  10.704   8.764
21608SOL     OW66830   4.461   9.982   8.472
21608SOL    HW166831   4.515   9.901   8.466
21608SOL    HW266832   4.518  10.044   8.426
21609SOL     OW66833   5.479  10.260   9.288
21609SOL    HW166834   5.434  10.187   9.241
21609SOL    HW266835   5.414  10.282   9.357
21610SOL     OW66836   4.047   9.382   8.053
21610SOL    HW166837   4.011   9.470   8.073
21610SOL    HW266838   4.044   9.339   8.140
21611SOL     OW66839   5.355   9.689   7.811
21611SOL    HW166840   5.307   9.613   7.850
21611SOL    HW266841   5.327   9.762   7.869
21612SOL     OW66842   4.759  10.069   8.433
21612SOL    HW166843   4.751  10.076   8.529
21612SOL    HW266844   4.748   9.973   8.418
21613SOL     OW66845   4.714  10.858   9.167
21613SOL    HW166846   4.683  10.907   9.091
21613SOL    HW266847   4.734  10.770   9.131
21614SOL     OW66848   5.571  10.844   9.047
21614SOL    HW166849   5.606  10.852   8.956
21614SOL    HW266850   5.651  10.839   9.102
21615SOL     OW66851   4.066  10.201   9.254
21615SOL    HW166852   4.144  10.228   9.303
21615SOL    HW266853   4.101  10.131   9.194
21616SOL     OW66854   5.235   9.574   7.579
21616SOL    HW166855   5.169   9.506   7.600
21616SOL    HW266856   5.273   9.593   7.666
21617SOL     OW66857   5.002  10.151   7.485
21617SOL    HW166858   5.034  10.059   7.497
21617SOL    HW266859   5.029  10.166   7.392
21618SOL     OW66860   4.812  10.637   8.298
21618SOL    HW166861   4.813  10.561   8.236
21618SOL    HW266862   4.869  10.703   8.255
21619SOL     OW66863   4.057  10.119   8.428
21619SOL    HW166864   4.034  10.112   8.334
21619SOL    HW266865   4.024  10.033   8.461
21620SOL     OW66866   4.056   9.845   8.451
21620SOL    HW166867   4.018   9.756   8.436
21620SOL    HW266868   4.122   9.850   8.378
21621SOL     OW66869   4.876   9.688   9.131
21621SOL    HW166870   4.833   9.730   9.208
21621SOL    HW266871   4.964   9.730   9.134
21622SOL     OW66872   4.886   9.512   8.927
21622SOL    HW166873   4.889   9.572   9.005
21622SOL    HW266874   4.935   9.563   8.861
21623SOL     OW66875   3.730  10.628   7.622
21623SOL    HW166876   3.639  10.647   7.590
21623SOL    HW266877   3.719  10.542   7.665
21624SOL     OW66878   4.239  10.902   8.378
21624SOL    HW166879   4.325  10.944   8.383
21624SOL    HW266880   4.261  10.825   8.323
21625SOL     OW66881   4.701  10.106   8.699
21625SOL    HW166882   4.755  10.064   8.768
21625SOL    HW266883   4.613  10.075   8.726
21626SOL     OW66884   3.753   9.842   8.560
21626SOL    HW166885   3.830   9.820   8.506
21626SOL    HW266886   3.790   9.841   8.650
21627SOL     OW66887   3.940   9.833   9.178
21627SOL    HW166888   3.979   9.772   9.114
21627SOL    HW266889   3.893   9.896   9.121
21628SOL     OW66890   5.129  10.194   9.090
21628SOL    HW166891   5.148  10.289   9.100
21628SOL    HW266892   5.090  10.191   9.000
21629SOL     OW66893   4.536   9.878   7.821
21629SOL    HW166894   4.543   9.804   7.759
21629SOL    HW266895   4.461   9.928   7.786
21630SOL     OW66896   5.373   9.931   8.664
21630SOL    HW166897   5.345   9.860   8.724
21630SOL    HW266898   5.453   9.892   8.623
21631SOL     OW66899   3.944  10.837   9.179
21631SOL    HW166900   3.928  10.904   9.246
21631SOL    HW266901   3.965  10.758   9.231
21632SOL     OW66902   4.395   9.812   8.717
21632SOL    HW166903   4.350   9.729   8.696
21632SOL    HW266904   4.393   9.861   8.635
21633SOL     OW66905   4.173   9.785   7.656
21633SOL    HW166906   4.235   9.859   7.648
21633SOL    HW266907   4.089   9.830   7.638
21634SOL     OW66908   3.842  10.440   8.912
21634SOL    HW166909   3.855  10.385   8.993
21634SOL    HW266910   3.864  10.377   8.840
21635SOL     OW66911   5.039  10.189   7.753
21635SOL    HW166912   4.962  10.143   7.790
21635SOL    HW266913   5.020  10.188   7.658
21636SOL     OW66914   5.506  11.026   8.601
21636SOL    HW166915   5.540  11.060   8.517
21636SOL    HW266916   5.476  10.935   8.577
21637SOL     OW66917   4.967  11.021   8.546
21637SOL    HW166918   5.059  11.045   8.521
21637SOL    HW266919   4.974  10.925   8.558
21638SOL     OW66920   3.828  10.583   8.469
21638SOL    HW166921   3.799  10.592   8.562
21638SOL    HW266922   3.753  10.535   8.431
21639SOL     OW66923   4.416  10.965   9.171
21639SOL    HW166924   4.344  11.029   9.185
21639SOL    HW266925   4.479  11.016   9.120
21640SOL     OW66926   5.523   9.443   8.004
21640SOL    HW166927   5.490   9.454   7.913
21640SOL    HW266928   5.469   9.371   8.039
21641SOL     OW66929   5.115  10.875   7.937
21641SOL    HW166930   5.186  10.887   7.871
21641SOL    HW266931   5.071  10.962   7.931
21642SOL     OW66932   3.889   0.004   9.277
21642SOL    HW166933   3.830  11.041   9.320
21642SOL    HW266934   3.936   0.039   9.355
21643SOL     OW66935   4.970  10.209   8.102
21643SOL    HW166936   5.050  10.158   8.125
21643SOL    HW266937   5.009  10.289   8.063
21644SOL     OW66938   4.530  10.585   8.859
21644SOL    HW166939   4.503  10.632   8.941
21644SOL    HW266940   4.448  10.595   8.808
21645SOL     OW66941   4.392  10.934   7.589
21645SOL    HW166942   4.409  10.930   7.493
21645SOL    HW266943   4.327  10.862   7.601
21646SOL     OW66944   5.562   9.475   8.424
21646SOL    HW166945   5.578   9.386   8.388
21646SOL    HW266946   5.476   9.500   8.384
21647SOL     OW66947   3.973   9.627   8.148
21647SOL    HW166948   3.888   9.672   8.132
21647SOL    HW266949   3.982   9.632   8.244
21648SOL     OW66950   4.924  10.938   7.481
21648SOL    HW166951   4.928  10.844   7.505
21648SOL    HW266952   4.863  10.939   7.406
21649SOL     OW66953   4.555  10.323   8.811
21649SOL    HW166954   4.607  10.306   8.732
21649SOL    HW266955   4.553  10.421   8.816
21650SOL     OW66956   4.644  10.237   7.734
21650SOL    HW166957   4.717  10.270   7.678
21650SOL    HW266958   4.675  10.152   7.764
21651SOL     OW66959   5.263  10.950   7.490
21651SOL    HW166960   5.168  10.940   7.479
21651SOL    HW266961   5.291  10.960   7.396
21652SOL     OW66962   4.068  10.586   8.940
21652SOL    HW166963   4.051  10.663   8.883
21652SOL    HW266964   3.986  10.534   8.933
21653SOL     OW66965   5.323  10.582   8.720
21653SOL    HW166966   5.406  10.584   8.771
21653SOL    HW266967   5.269  10.650   8.765
21654SOL     OW66968   4.776  10.398   8.177
21654SOL    HW166969   4.693  10.349   8.185
21654SOL    HW266970   4.832  10.335   8.129
21655SOL     OW66971   4.745   9.539   8.443
21655SOL    HW166972   4.720   9.501   8.356
21655SOL    HW266973   4.753   9.458   8.496
21656SOL     OW66974   4.333  10.802   7.951
21656SOL    HW166975   4.370  10.753   7.876
21656SOL    HW266976   4.280  10.869   7.906
21657SOL     OW66977   5.429   9.684   8.834
21657SOL    HW166978   5.494   9.757   8.833
21657SOL    HW266979   5.473   9.619   8.776
21658SOL     OW66980   3.989  10.649   7.726
21658SOL    HW166981   3.893  10.651   7.711
21658SOL    HW266982   3.994  10.691   7.815
21659SOL     OW66983   3.852  10.325   9.152
21659SOL    HW166984   3.778  10.309   9.214
21659SOL    HW266985   3.928  10.283   9.199
21660SOL     OW66986   4.392   9.505   8.937
21660SOL    HW166987   4.477   9.471   8.905
21660SOL    HW266988   4.416   9.531   9.029
21661SOL     OW66989   3.823   9.654   7.486
21661SOL    HW166990   3.729   9.655   7.463
21661SOL    HW266991   3.857   9.728   7.433
21662SOL     OW66992   5.139  10.196   8.810
21662SOL    HW166993   5.114  10.148   8.729
21662SOL    HW266994   5.235  10.206   8.801
21663SOL     OW66995   3.771   9.477   7.746
21663SOL    HW166996   3.770   9.564   7.703
21663SOL    HW266997   3.855   9.440   7.714
21664SOL     OW66998   4.922  10.635   7.563
21664SOL    HW166999   4.844  10.579   7.571
21664SOL    HW267000   4.950  10.642   7.657
21665SOL     OW67001   4.347  10.141   8.882
21665SOL    HW167002   4.400  10.222   8.889
21665SOL    HW267003   4.417  10.073   8.889
21666SOL     OW67004   5.226  11.058   8.413
21666SOL    HW167005   5.245   0.013   8.338
21666SOL    HW267006   5.313  11.047   8.452
21667SOL     OW67007   4.466   9.856   9.133
21667SOL    HW167008   4.483   9.910   9.212
21667SOL    HW267009   4.469   9.765   9.166
21668SOL     OW67010   5.201  10.462   9.091
21668SOL    HW167011   5.182  10.483   9.184
21668SOL    HW267012   5.297  10.481   9.086
21669SOL     OW67013   5.401  10.194   8.683
21669SOL    HW167014   5.400  10.099   8.659
21669SOL    HW267015   5.364  10.238   8.604
21670SOL     OW67016   4.921   9.656   7.924
21670SOL    HW167017   4.985   9.582   7.912
21670SOL    HW267018   4.968   9.707   7.992
21671SOL     OW67019   4.315  10.059   8.110
21671SOL    HW167020   4.357  10.142   8.083
21671SOL    HW267021   4.246  10.048   8.042
21672SOL     OW67022   5.491   9.678   9.093
21672SOL    HW167023   5.461   9.685   9.001
21672SOL    HW267024   5.412   9.638   9.135
21673SOL     OW67025   5.463  10.234   8.944
21673SOL    HW167026   5.452  10.329   8.957
21673SOL    HW267027   5.460  10.224   8.847
21674SOL     OW67028   4.552  10.675   7.476
21674SOL    HW167029   4.530  10.701   7.568
21674SOL    HW267030   4.601  10.751   7.441
21675SOL     OW67031   4.577  10.242   8.306
21675SOL    HW167032   4.653  10.193   8.341
21675SOL    HW267033   4.570  10.318   8.366
21676SOL     OW67034   4.822  10.336   7.559
21676SOL    HW167035   4.784  10.377   7.479
21676SOL    HW267036   4.878  10.266   7.520
21677SOL     OW67037   5.561  10.878   8.293
21677SOL    HW167038   5.477  10.855   8.251
21677SOL    HW267039   5.590  10.796   8.333
21678SOL     OW67040   3.985  10.612   9.319
21678SOL    HW167041   3.906  10.569   9.286
21678SOL    HW267042   3.967  10.609   9.415
21679SOL     OW67043   3.826  10.575   8.107
21679SOL    HW167044   3.816  10.518   8.185
21679SOL    HW267045   3.866  10.513   8.044
21680SOL     OW67046   4.404  10.711   9.059
21680SOL    HW167047   4.341  10.651   9.103
21680SOL    HW267048   4.385  10.796   9.103
21681SOL     OW67049   5.540   9.476   8.686
21681SOL    HW167050   5.544   9.380   8.683
21681SOL    HW267051   5.555   9.497   8.592
21682SOL     OW67052   4.181   9.741   7.988
21682SOL    HW167053   4.208   9.672   7.926
21682SOL    HW267054   4.124   9.695   8.051
21683SOL     OW67055   5.419  10.784   8.549
21683SOL    HW167056   5.342  10.772   8.490
21683SOL    HW267057   5.411  10.708   8.607
21684SOL     OW67058   4.053   9.863   8.730
21684SOL    HW167059   4.108   9.812   8.793
21684SOL    HW267060   4.069   9.819   8.644
21685SOL     OW67061   4.531  10.905   8.143
21685SOL    HW167062   4.537  10.974   8.074
21685SOL    HW267063   4.447  10.862   8.121
21686SOL     OW67064   5.153   9.548   8.548
21686SOL    HW167065   5.183   9.466   8.588
21686SOL    HW267066   5.108   9.595   8.621
21687SOL     OW67067   4.741   9.307   8.613
21687SOL    HW167068   4.689   9.228   8.591
21687SOL    HW267069   4.832   9.272   8.604
21688SOL     OW67070   4.505  10.656   7.746
21688SOL    HW167071   4.461  10.570   7.736
21688SOL    HW267072   4.581  10.631   7.800
21689SOL     OW67073   4.333  10.857   8.715
21689SOL    HW167074   4.339  10.945   8.754
21689SOL    HW267075   4.426  10.842   8.689
21690SOL     OW67076   5.044   9.368   7.571
21690SOL    HW167077   5.039   9.274   7.553
21690SOL    HW267078   4.986   9.377   7.648
21691SOL     OW67079   5.042   9.796   8.150
21691SOL    HW167080   4.969   9.861   8.149
21691SOL    HW267081   5.022   9.744   8.230
21692SOL     OW67082   5.325   9.520   8.320
21692SOL    HW167083   5.244   9.529   8.373
21692SOL    HW267084   5.322   9.597   8.261
21693SOL     OW67085   3.765  10.369   7.757
21693SOL    HW167086   3.854  10.347   7.726
21693SOL    HW267087   3.729  10.280   7.772
21694SOL     OW67088   3.957   9.951   9.448
21694SOL    HW167089   3.867   9.932   9.479
21694SOL    HW267090   3.955   9.923   9.355
21695SOL     OW67091   3.946   9.593  10.271
21695SOL    HW167092   3.971   9.575  10.364
21695SOL    HW267093   3.859   9.547  10.267
21696SOL     OW67094   3.720   9.709   9.919
21696SOL    HW167095   3.637   9.720   9.970
21696SOL    HW267096   3.707   9.621   9.881
21697SOL     OW67097   4.281  10.574  10.466
21697SOL    HW167098   4.195  10.566  10.424
21697SOL    HW267099   4.270  10.656  10.516
21698SOL     OW67100   5.287  10.854  10.018
21698SOL    HW167101   5.231  10.839  10.095
21698SOL    HW267102   5.225  10.847   9.943
21699SOL     OW67103   4.855   9.988  10.012
21699SOL    HW167104   4.895  10.073   9.987
21699SOL    HW267105   4.807  10.012  10.093
21700SOL     OW67106   5.500   9.921   9.555
21700SOL    HW167107   5.480   9.904   9.461
21700SOL    HW267108   5.449   9.852   9.600
21701SOL     OW67109   4.472  10.454  10.325
21701SOL    HW167110   4.402  10.494  10.381
21701SOL    HW267111   4.508  10.533  10.282
21702SOL     OW67112   4.612  10.069   0.019
21702SOL    HW167113   4.586  10.145   0.072
21702SOL    HW267114   4.650  10.112  11.041
21703SOL     OW67115   4.430  10.341   9.966
21703SOL    HW167116   4.489  10.323  10.041
21703SOL    HW267117   4.351  10.379  10.009
21704SOL     OW67118   4.046  10.750  10.396
21704SOL    HW167119   3.972  10.716  10.342
21704SOL    HW267120   4.098  10.802  10.333
21705SOL     OW67121   5.191  10.803  10.667
21705SOL    HW167122   5.225  10.884  10.709
21705SOL    HW267123   5.150  10.756  10.741
21706SOL     OW67124   4.170   9.704  10.795
21706SOL    HW167125   4.245   9.643  10.800
21706SOL    HW267126   4.092   9.647  10.804
21707SOL     OW67127   5.339   9.760  10.052
21707SOL    HW167128   5.269   9.797   9.997
21707SOL    HW267129   5.333   9.816  10.131
21708SOL     OW67130   3.950  10.764   9.836
21708SOL    HW167131   3.968  10.846   9.883
21708SOL    HW267132   3.905  10.708   9.902
21709SOL     OW67133   4.001  10.412  10.209
21709SOL    HW167134   3.992  10.330  10.259
21709SOL    HW267135   3.941  10.473  10.256
21710SOL     OW67136   4.284  10.301   9.415
21710SOL    HW167137   4.342  10.340   9.347
21710SOL    HW267138   4.324  10.338   9.496
21711SOL     OW67139   5.316   9.441  10.801
21711SOL    HW167140   5.317   9.524  10.752
21711SOL    HW267141   5.332   9.469  10.892
21712SOL     OW67142   3.838   9.964   9.873
21712SOL    HW167143   3.806   9.874   9.892
21712SOL    HW267144   3.838  10.006   9.962
21713SOL     OW67145   3.778  10.909   9.428
21713SOL    HW167146   3.772  10.814   9.447
21713SOL    HW267147   3.718  10.946   9.493
21714SOL     OW67148   5.406  10.228   9.943
21714SOL    HW167149   5.483  10.188   9.899
21714SOL    HW267150   5.372  10.287   9.874
21715SOL     OW67151   5.372  10.430   9.758
21715SOL    HW167152   5.464  10.427   9.726
21715SOL    HW267153   5.381  10.487   9.838
21716SOL     OW67154   3.846  10.053  10.904
21716SOL    HW167155   3.939  10.071  10.922
21716SOL    HW267156   3.806  10.140  10.917
21717SOL     OW67157   4.323  10.702  10.075
21717SOL    HW167158   4.288  10.611  10.083
21717SOL    HW267159   4.317  10.713   9.978
21718SOL     OW67160   5.028  10.579  10.743
21718SOL    HW167161   5.057  10.522  10.669
21718SOL    HW267162   5.076  10.539  10.817
21719SOL     OW67163   3.916  10.297  10.593
21719SOL    HW167164   4.002  10.253  10.579
21719SOL    HW267165   3.854  10.231  10.559
21720SOL     OW67166   5.273  10.303   9.508
21720SOL    HW167167   5.197  10.248   9.536
21720SOL    HW267168   5.308  10.332   9.594
21721SOL     OW67169   4.966   0.003  10.895
21721SOL    HW167170   4.922   0.069  10.839
21721SOL    HW267171   4.949  11.022  10.847
21722SOL     OW67172   4.063   9.544   0.020
21722SOL    HW167173   4.123   9.612   0.053
21722SOL    HW267174   3.980   9.595   0.012
21723SOL     OW67175   5.197  10.729  10.283
21723SOL    HW167176   5.124  10.742  10.346
21723SOL    HW267177   5.175  10.644  10.242
21724SOL     OW67178   4.313  10.026   9.579
21724SOL    HW167179   4.314  10.112   9.534
21724SOL    HW267180   4.242  10.039   9.645
21725SOL     OW67181   5.008   9.677  10.250
21725SOL    HW167182   4.920   9.636  10.256
21725SOL    HW267183   5.060   9.620  10.309
21726SOL     OW67184   5.299  10.946   9.620
21726SOL    HW167185   5.339  11.030   9.643
21726SOL    HW267186   5.291  10.950   9.522
21727SOL     OW67187   4.541   9.912  10.779
21727SOL    HW167188   4.506   9.890  10.867
21727SOL    HW267189   4.487   9.856  10.719
21728SOL     OW67190   4.710  10.208  10.886
21728SOL    HW167191   4.749  10.128  10.845
21728SOL    HW267192   4.654  10.243  10.814
21729SOL     OW67193   4.710   9.697  10.558
21729SOL    HW167194   4.622   9.719  10.592
21729SOL    HW267195   4.690   9.647  10.478
21730SOL     OW67196   4.765   9.994   9.717
21730SOL    HW167197   4.777  10.008   9.813
21730SOL    HW267198   4.678   9.947   9.716
21731SOL     OW67199   3.834  10.119  10.105
21731SOL    HW167200   3.907  10.119  10.170
21731SOL    HW267201   3.797  10.208  10.116
21732SOL     OW67202   3.840   0.023  10.891
21732SOL    HW167203   3.829  11.089  10.980
21732SOL    HW267204   3.752   0.007  10.854
21733SOL     OW67205   4.597   9.697   9.499
21733SOL    HW167206   4.657   9.738   9.435
21733SOL    HW267207   4.644   9.618   9.527
21734SOL     OW67208   5.081  10.458   9.868
21734SOL    HW167209   5.160  10.451   9.812
21734SOL    HW267210   5.028  10.523   9.818
21735SOL     OW67211   4.266   9.479  10.203
21735SOL    HW167212   4.272   9.506  10.296
21735SOL    HW267213   4.259   9.564  10.157
21736SOL     OW67214   4.710  10.760   9.774
21736SOL    HW167215   4.633  10.805   9.737
21736SOL    HW267216   4.701  10.782   9.869
21737SOL     OW67217   4.067   0.009  10.202
21737SOL    HW167218   4.120  11.032  10.222
21737SOL    HW267219   4.135   0.078  10.191
21738SOL     OW67220   5.539  10.364  10.169
21738SOL    HW167221   5.473  10.350  10.099
21738SOL    HW267222   5.482  10.367  10.248
21739SOL     OW67223   4.925  10.860  10.783
21739SOL    HW167224   4.959  10.786  10.834
21739SOL    HW267225   4.880  10.814  10.710
21740SOL     OW67226   4.028  10.259   9.551
21740SOL    HW167227   4.108  10.275   9.499
21740SOL    HW267228   3.996  10.176   9.513
21741SOL     OW67229   5.206  10.067  10.027
21741SOL    HW167230   5.213  10.026  10.115
21741SOL    HW267231   5.288  10.118  10.019
21742SOL     OW67232   4.197  10.573  11.042
21742SOL    HW167233   4.166  10.589  10.950
21742SOL    HW267234   4.141  10.499  11.068
21743SOL     OW67235   4.815  11.084   9.561
21743SOL    HW167236   4.755  11.037   9.620
21743SOL    HW267237   4.818  11.029   9.482
21744SOL     OW67238   3.891   9.597  10.775
21744SOL    HW167239   3.831   9.665  10.808
21744SOL    HW267240   3.874   9.522  10.834
21745SOL     OW67241   5.344  10.695   9.401
21745SOL    HW167242   5.289  10.774   9.393
21745SOL    HW267243   5.281  10.624   9.380
21746SOL     OW67244   5.122   9.436   9.754
21746SOL    HW167245   5.112   9.389   9.670
21746SOL    HW267246   5.218   9.436   9.766
21747SOL     OW67247   4.099  10.027   9.771
21747SOL    HW167248   4.128   9.934   9.785
21747SOL    HW267249   4.004  10.017   9.788
21748SOL     OW67250   4.349   9.445   9.400
21748SOL    HW167251   4.420   9.389   9.434
21748SOL    HW267252   4.306   9.388   9.333
21749SOL     OW67253   4.497   9.560  11.024
21749SOL    HW167254   4.571   9.534  11.081
21749SOL    HW267255   4.433   9.594  11.088
21750SOL     OW67256   4.619  10.846  10.506
21750SOL    HW167257   4.600  10.803  10.420
21750SOL    HW267258   4.686  10.787  10.545
21751SOL     OW67259   5.071   9.903  10.725
21751SOL    HW167260   5.139   9.873  10.785
21751SOL    HW267261   5.107   9.991  10.700
21752SOL     OW67262   4.569  10.716  10.267
21752SOL    HW167263   4.656  10.698  10.227
21752SOL    HW267264   4.513  10.727  10.189
21753SOL     OW67265   4.666   9.835  10.217
21753SOL    HW167266   4.632   9.822  10.125
21753SOL    HW267267   4.691   9.745  10.240
21754SOL     OW67268   4.246   9.349   9.809
21754SOL    HW167269   4.176   9.374   9.870
21754SOL    HW267270   4.265   9.432   9.762
21755SOL     OW67271   5.165  10.500   9.351
21755SOL    HW167272   5.197  10.430   9.411
21755SOL    HW267273   5.072  10.510   9.378
21756SOL     OW67274   4.011   9.343   9.500
21756SOL    HW167275   4.074   9.416   9.492
21756SOL    HW267276   4.067   9.275   9.544
21757SOL     OW67277   4.649   9.597   9.805
21757SOL    HW167278   4.606   9.510   9.794
21757SOL    HW267279   4.742   9.574   9.799
21758SOL     OW67280   4.826   9.992  10.764
21758SOL    HW167281   4.767   9.915  10.771
21758SOL    HW267282   4.915   9.953  10.758
21759SOL     OW67283   4.960  10.877  10.113
21759SOL    HW167284   4.929  10.961  10.078
21759SOL    HW267285   5.021  10.905  10.181
21760SOL     OW67286   4.200  10.464  10.048
21760SOL    HW167287   4.129  10.445  10.112
21760SOL    HW267288   4.158  10.435   9.964
21761SOL     OW67289   4.787   9.838   9.339
21761SOL    HW167290   4.739   9.921   9.335
21761SOL    HW267291   4.848   9.850   9.414
21762SOL     OW67292   3.802   9.875  10.704
21762SOL    HW167293   3.897   9.869  10.686
21762SOL    HW267294   3.800   9.952  10.766
21763SOL     OW67295   4.287   9.537  10.472
21763SOL    HW167296   4.327   9.464  10.522
21763SOL    HW267297   4.195   9.533  10.504
21764SOL     OW67298   4.584   9.789   9.976
21764SOL    HW167299   4.529   9.834   9.911
21764SOL    HW267300   4.617   9.714   9.921
21765SOL     OW67301   4.787   9.383  10.079
21765SOL    HW167302   4.737   9.375   9.995
21765SOL    HW267303   4.744   9.312  10.131
21766SOL     OW67304   5.157  10.484  10.189
21766SOL    HW167305   5.086  10.422  10.209
21766SOL    HW267306   5.159  10.480  10.092
21767SOL     OW67307   5.224   9.904  10.273
21767SOL    HW167308   5.157   9.835  10.287
21767SOL    HW267309   5.276   9.901  10.355
21768SOL     OW67310   5.567  10.136   9.712
21768SOL    HW167311   5.614  10.075   9.772
21768SOL    HW267312   5.548  10.077   9.636
21769SOL     OW67313   4.205  10.749   9.480
21769SOL    HW167314   4.138  10.712   9.541
21769SOL    HW267315   4.172  10.711   9.398
21770SOL     OW67316   5.410  10.585   9.972
21770SOL    HW167317   5.506  10.599   9.983
21770SOL    HW267318   5.372  10.670   9.999
21771SOL     OW67319   5.126   9.897   9.382
21771SOL    HW167320   5.064   9.874   9.455
21771SOL    HW267321   5.201   9.842   9.408
21772SOL     OW67322   4.251   9.552   9.627
21772SOL    HW167323   4.296   9.519   9.547
21772SOL    HW267324   4.221   9.639   9.596
21773SOL     OW67325   5.495  10.542  10.885
21773SOL    HW167326   5.570  10.494  10.925
21773SOL    HW267327   5.500  10.628  10.927
21774SOL     OW67328   4.762  10.667  10.677
21774SOL    HW167329   4.678  10.623  10.703
21774SOL    HW267330   4.831  10.605  10.706
21775SOL     OW67331   4.824  10.512  10.429
21775SOL    HW167332   4.756  10.553  10.483
21775SOL    HW267333   4.806  10.550  10.340
21776SOL     OW67334   5.366  10.412  10.378
21776SOL    HW167335   5.357  10.461  10.462
21776SOL    HW267336   5.288  10.445  10.330
21777SOL     OW67337   4.633   9.417  10.690
21777SOL    HW167338   4.669   9.389  10.603
21777SOL    HW267339   4.712   9.455  10.732
21778SOL     OW67340   4.422  10.387   9.637
21778SOL    HW167341   4.407  10.361   9.729
21778SOL    HW267342   4.501  10.333   9.616
21779SOL     OW67343   4.146  10.129  10.588
21779SOL    HW167344   4.226  10.117  10.643
21779SOL    HW267345   4.110  10.038  10.584
21780SOL     OW67346   4.992   9.682  10.588
21780SOL    HW167347   5.012   9.764  10.636
21780SOL    HW267348   4.909   9.703  10.543
21781SOL     OW67349   3.789  10.874  10.652
21781SOL    HW167350   3.764  10.941  10.587
21781SOL    HW267351   3.887  10.877  10.653
21782SOL     OW67352   4.085  10.388   9.814
21782SOL    HW167353   4.101  10.460   9.752
21782SOL    HW267354   4.071  10.312   9.756
21783SOL     OW67355   4.258   9.848  10.153
21783SOL    HW167356   4.284   9.915  10.087
21783SOL    HW267357   4.330   9.857  10.218
21784SOL     OW67358   4.963  10.666   9.695
21784SOL    HW167359   5.019  10.735   9.738
21784SOL    HW267360   4.873  10.695   9.721
21785SOL     OW67361   5.009  10.768  10.470
21785SOL    HW167362   5.074  10.783  10.541
21785SOL    HW267363   4.965  10.686  10.496
21786SOL     OW67364   5.299   9.929   9.783
21786SOL    HW167365   5.251   9.982   9.849
21786SOL    HW267366   5.327   9.995   9.719
21787SOL     OW67367   4.064  10.832  10.648
21787SOL    HW167368   4.056  10.797  10.556
21787SOL    HW267369   4.156  10.860  10.652
21788SOL     OW67370   4.163  10.044  10.910
21788SOL    HW167371   4.234  10.077  10.853
21788SOL    HW267372   4.168   9.949  10.895
21789SOL     OW67373   5.333  10.056  11.008
21789SOL    HW167374   5.276  10.129  11.028
21789SOL    HW267375   5.397  10.096  10.947
21790SOL     OW67376   4.290  10.216  10.353
21790SOL    HW167377   4.343  10.297  10.348
21790SOL    HW267378   4.259  10.213  10.445
21791SOL     OW67379   5.071  10.192  10.335
21791SOL    HW167380   5.002  10.147  10.285
21791SOL    HW267381   5.139  10.124  10.345
21792SOL     OW67382   4.942   9.836   9.572
21792SOL    HW167383   4.954   9.764   9.638
21792SOL    HW267384   4.881   9.894   9.621
21793SOL     OW67385   4.011   9.518  10.539
21793SOL    HW167386   3.962   9.553  10.616
21793SOL    HW267387   3.989   9.423  10.544
21794SOL     OW67388   3.774  10.608  10.589
21794SOL    HW167389   3.810  10.559  10.666
21794SOL    HW267390   3.762  10.698  10.625
21795SOL     OW67391   4.433   9.961  10.343
21795SOL    HW167392   4.513   9.953  10.288
21795SOL    HW267393   4.396  10.047  10.318
21796SOL     OW67394   4.001   9.376   9.930
21796SOL    HW167395   3.988   9.469   9.958
21796SOL    HW267396   4.017   9.332  10.015
21797SOL     OW67397   5.319   9.687   9.667
21797SOL    HW167398   5.346   9.620   9.732
21797SOL    HW267399   5.302   9.765   9.723
21798SOL     OW67400   4.766  10.074  10.261
21798SOL    HW167401   4.756  10.089  10.356
21798SOL    HW267402   4.739   9.979  10.252
21799SOL     OW67403   4.700  10.870  10.968
21799SOL    HW167404   4.715  10.918  10.886
21799SOL    HW267405   4.682  10.779  10.939
21800SOL     OW67406   5.548  10.844  10.920
21800SOL    HW167407   5.580  10.866  10.831
21800SOL    HW267408   5.631  10.827  10.968
21801SOL     OW67409   4.111  10.246  11.073
21801SOL    HW167410   4.185  10.241   0.034
21801SOL    HW267411   4.130  10.172  11.012
21802SOL     OW67412   5.244   9.567   9.436
21802SOL    HW167413   5.172   9.507   9.463
21802SOL    HW267414   5.277   9.600   9.522
21803SOL     OW67415   5.021  10.155   9.335
21803SOL    HW167416   5.051  10.066   9.360
21803SOL    HW267417   5.055  10.161   9.244
21804SOL     OW67418   4.800  10.634  10.167
21804SOL    HW167419   4.794  10.565  10.097
21804SOL    HW267420   4.863  10.698  10.130
21805SOL     OW67421   4.026  10.120  10.303
21805SOL    HW167422   4.120  10.144  10.313
21805SOL    HW267423   4.028  10.024  10.318
21806SOL     OW67424   4.049   9.836  10.310
21806SOL    HW167425   4.012   9.750  10.284
21806SOL    HW267426   4.121   9.846  10.244
21807SOL     OW67427   4.879   9.510  10.776
21807SOL    HW167428   4.910   9.564  10.849
21807SOL    HW267429   4.913   9.558  10.698
21808SOL     OW67430   3.731  10.634   9.478
21808SOL    HW167431   3.638  10.661   9.456
21808SOL    HW267432   3.717  10.548   9.520
21809SOL     OW67433   4.233  10.897  10.245
21809SOL    HW167434   4.317  10.942  10.255
21809SOL    HW267435   4.258  10.823  10.186
21810SOL     OW67436   4.709  10.116  10.544
21810SOL    HW167437   4.773  10.074  10.605
21810SOL    HW267438   4.628  10.068  10.567
21811SOL     OW67439   3.759   9.828  10.431
21811SOL    HW167440   3.843   9.832  10.383
21811SOL    HW267441   3.788   9.830  10.524
21812SOL     OW67442   4.530   9.884   9.687
21812SOL    HW167443   4.548   9.808   9.627
21812SOL    HW267444   4.454   9.926   9.644
21813SOL     OW67445   5.377   9.914  10.500
21813SOL    HW167446   5.372   9.850  10.572
21813SOL    HW267447   5.465   9.894  10.461
21814SOL     OW67448   3.953  10.841  11.044
21814SOL    HW167449   3.900  10.902  11.099
21814SOL    HW267450   3.953  10.763  11.100
21815SOL     OW67451   4.418   9.786  10.571
21815SOL    HW167452   4.372   9.708  10.536
21815SOL    HW267453   4.409   9.851  10.499
21816SOL     OW67454   4.162   9.781   9.507
21816SOL    HW167455   4.233   9.846   9.515
21816SOL    HW267456   4.084   9.838   9.496
21817SOL     OW67457   3.883  10.470  10.790
21817SOL    HW167458   3.880  10.414  10.870
21817SOL    HW267459   3.898  10.404  10.719
21818SOL     OW67460   5.036  10.366  10.545
21818SOL    HW167461   5.060  10.304  10.473
21818SOL    HW267462   4.957  10.408  10.507
21819SOL     OW67463   5.037  10.183   9.604
21819SOL    HW167464   4.959  10.146   9.647
21819SOL    HW267465   5.014  10.183   9.510
21820SOL     OW67466   5.500  11.023  10.465
21820SOL    HW167467   5.544  11.044  10.381
21820SOL    HW267468   5.472  10.930  10.451
21821SOL     OW67469   4.969  11.033  10.455
21821SOL    HW167470   5.055  11.056  10.417
21821SOL    HW267471   4.974  10.935  10.455
21822SOL     OW67472   3.829  10.579  10.327
21822SOL    HW167473   3.808  10.592  10.422
21822SOL    HW267474   3.753  10.528  10.296
21823SOL     OW67475   5.405   9.437   9.803
21823SOL    HW167476   5.486   9.430   9.750
21823SOL    HW267477   5.404   9.352   9.852
21824SOL     OW67478   5.109  10.876   9.796
21824SOL    HW167479   5.182  10.888   9.731
21824SOL    HW267480   5.070  10.964   9.796
21825SOL     OW67481   4.985  10.213   9.964
21825SOL    HW167482   5.065  10.161   9.985
21825SOL    HW267483   5.022  10.296   9.930
21826SOL     OW67484   4.506  10.580  10.737
21826SOL    HW167485   4.480  10.632  10.817
21826SOL    HW267486   4.424  10.584  10.686
21827SOL     OW67487   4.392  10.933   9.450
21827SOL    HW167488   4.408  10.924   9.355
21827SOL    HW267489   4.324  10.864   9.467
21828SOL     OW67490   5.566   9.475  10.256
21828SOL    HW167491   5.582   9.382  10.234
21828SOL    HW267492   5.476   9.494  10.219
21829SOL     OW67493   3.974   9.639  10.002
21829SOL    HW167494   3.888   9.681   9.985
21829SOL    HW267495   3.977   9.636  10.099
21830SOL     OW67496   4.931  10.935   9.339
21830SOL    HW167497   4.920  10.844   9.371
21830SOL    HW267498   4.859  10.944   9.273
21831SOL     OW67499   4.542  10.312  10.695
21831SOL    HW167500   4.591  10.310  10.611
21831SOL    HW267501   4.543  10.407  10.719
21832SOL     OW67502   4.635  10.242   9.588
21832SOL    HW167503   4.711  10.269   9.534
21832SOL    HW267504   4.664  10.155   9.621
21833SOL     OW67505   5.246  10.960   9.350
21833SOL    HW167506   5.151  10.940   9.341
21833SOL    HW267507   5.275  10.960   9.256
21834SOL     OW67508   4.112  10.600  10.791
21834SOL    HW167509   4.088  10.681  10.743
21834SOL    HW267510   4.028  10.551  10.789
21835SOL     OW67511   5.327  10.575  10.586
21835SOL    HW167512   5.396  10.569  10.654
21835SOL    HW267513   5.284  10.659  10.609
21836SOL     OW67514   4.761  10.429   9.999
21836SOL    HW167515   4.698  10.374  10.050
21836SOL    HW267516   4.821  10.362   9.964
21837SOL     OW67517   4.757   9.550  10.300
21837SOL    HW167518   4.750   9.508  10.212
21837SOL    HW267519   4.753   9.472  10.358
21838SOL     OW67520   4.332  10.804   9.815
21838SOL    HW167521   4.360  10.767   9.730
21838SOL    HW267522   4.285  10.884   9.788
21839SOL     OW67523   5.432   9.699  10.696
21839SOL    HW167524   5.501   9.767  10.702
21839SOL    HW267525   5.470   9.638  10.629
21840SOL     OW67526   3.980  10.664   9.594
21840SOL    HW167527   3.885  10.662   9.576
21840SOL    HW267528   3.981  10.700   9.685
21841SOL     OW67529   3.865  10.326  11.006
21841SOL    HW167530   3.799  10.324  11.076
21841SOL    HW267531   3.948  10.298  11.051
21842SOL     OW67532   4.394   9.508  10.778
21842SOL    HW167533   4.480   9.486  10.736
21842SOL    HW267534   4.423   9.531  10.868
21843SOL     OW67535   3.822   9.648   9.340
21843SOL    HW167536   3.729   9.643   9.317
21843SOL    HW267537   3.850   9.728   9.292
21844SOL     OW67538   5.173  10.152  10.697
21844SOL    HW167539   5.121  10.228  10.667
21844SOL    HW267540   5.260  10.192  10.714
21845SOL     OW67541   3.770   9.468   9.603
21845SOL    HW167542   3.770   9.557   9.565
21845SOL    HW267543   3.855   9.434   9.569
21846SOL     OW67544   4.907  10.645   9.427
21846SOL    HW167545   4.822  10.599   9.433
21846SOL    HW267546   4.934  10.648   9.521
21847SOL     OW67547   4.366  10.116  10.742
21847SOL    HW167548   4.422  10.195  10.729
21847SOL    HW267549   4.432  10.047  10.759
21848SOL     OW67550   5.232  11.065  10.284
21848SOL    HW167551   5.274  11.098  10.203
21848SOL    HW267552   5.306  11.059  10.346
21849SOL     OW67553   4.446   9.871  11.030
21849SOL    HW167554   4.487   9.942  11.083
21849SOL    HW267555   4.508   9.798  11.038
21850SOL     OW67556   4.123  11.022  10.892
21850SOL    HW167557   4.044  11.074  10.869
21850SOL    HW267558   4.083  10.948  10.940
21851SOL     OW67559   5.451  10.184  10.515
21851SOL    HW167560   5.410  10.097  10.499
21851SOL    HW267561   5.402  10.245  10.456
21852SOL     OW67562   4.949   9.652   9.771
21852SOL    HW167563   5.005   9.572   9.772
21852SOL    HW267564   4.978   9.698   9.852
21853SOL     OW67565   4.325  10.044   9.977
21853SOL    HW167566   4.367  10.129   9.959
21853SOL    HW267567   4.244  10.049   9.924
21854SOL     OW67568   5.490   9.622  10.951
21854SOL    HW167569   5.464   9.648  10.860
21854SOL    HW267570   5.412   9.642  11.003
21855SOL     OW67571   5.439  10.231  10.786
21855SOL    HW167572   5.485  10.307  10.825
21855SOL    HW267573   5.479  10.222  10.697
21856SOL     OW67574   4.558  10.675   9.349
21856SOL    HW167575   4.537  10.686   9.444
21856SOL    HW267576   4.595  10.760   9.322
21857SOL     OW67577   4.613  10.269  10.164
21857SOL    HW167578   4.669  10.196  10.196
21857SOL    HW267579   4.584  10.314  10.245
21858SOL     OW67580   4.819  10.322   9.409
21858SOL    HW167581   4.787  10.371   9.331
21858SOL    HW267582   4.879  10.257   9.369
21859SOL     OW67583   5.550  10.918  10.176
21859SOL    HW167584   5.485  10.877  10.118
21859SOL    HW267585   5.559  10.852  10.246
21860SOL     OW67586   3.818  10.567   9.982
21860SOL    HW167587   3.825  10.518  10.066
21860SOL    HW267588   3.854  10.503   9.919
21861SOL     OW67589   4.408  10.714  10.941
21861SOL    HW167590   4.343  10.656  10.985
21861SOL    HW267591   4.353  10.791  10.919
21862SOL     OW67592   5.518   9.520  10.515
21862SOL    HW167593   5.544   9.431  10.541
21862SOL    HW267594   5.537   9.520  10.419
21863SOL     OW67595   4.150   9.766   9.822
21863SOL    HW167596   4.208   9.699   9.783
21863SOL    HW267597   4.106   9.717   9.893
21864SOL     OW67598   5.447  10.773  10.406
21864SOL    HW167599   5.360  10.744  10.372
21864SOL    HW267600   5.472  10.701  10.468
21865SOL     OW67601   4.075   9.861  10.594
21865SOL    HW167602   4.126   9.804  10.655
21865SOL    HW267603   4.083   9.817  10.508
21866SOL     OW67604   4.557  10.888   9.989
21866SOL    HW167605   4.552  10.966   9.930
21866SOL    HW267606   4.466  10.854   9.988
21867SOL     OW67607   5.158   9.543  10.428
21867SOL    HW167608   5.193   9.466  10.475
21867SOL    HW267609   5.102   9.588  10.495
21868SOL     OW67610   4.744   9.326  10.462
21868SOL    HW167611   4.688   9.257  10.424
21868SOL    HW267612   4.831   9.282  10.466
21869SOL     OW67613   4.505  10.643   9.615
21869SOL    HW167614   4.460  10.557   9.613
21869SOL    HW267615   4.575  10.627   9.680
21870SOL     OW67616   4.349  10.864  10.606
21870SOL    HW167617   4.355  10.956  10.635
21870SOL    HW267618   4.437  10.850  10.567
21871SOL     OW67619   5.051   9.339   9.474
21871SOL    HW167620   5.050   9.276   9.401
21871SOL    HW267621   4.965   9.316   9.516
21872SOL     OW67622   5.032   9.785  10.000
21872SOL    HW167623   4.965   9.856   9.999
21872SOL    HW267624   5.019   9.747  10.090
21873SOL     OW67625   5.317   9.524  10.177
21873SOL    HW167626   5.254   9.539  10.249
21873SOL    HW267627   5.314   9.608  10.127
21874SOL     OW67628   3.775  10.378   9.628
21874SOL    HW167629   3.865  10.356   9.599
21874SOL    HW267630   3.739  10.288   9.642
21875SOL     OW67631   5.830   0.632   0.150
21875SOL    HW167632   5.739   0.617   0.178
21875SOL    HW267633   5.827   0.618   0.055
21876SOL     OW67634   5.807   0.290   1.000
21876SOL    HW167635   5.832   0.278   1.093
21876SOL    HW267636   5.739   0.222   0.986
21877SOL     OW67637   5.606   0.385   0.641
21877SOL    HW167638   5.523   0.396   0.690
21877SOL    HW267639   5.579   0.332   0.565
21878SOL     OW67640   6.152   1.293   1.206
21878SOL    HW167641   6.066   1.294   1.163
21878SOL    HW267642   6.163   1.386   1.232
21879SOL     OW67643   7.124   1.523   0.707
21879SOL    HW167644   7.090   1.513   0.798
21879SOL    HW267645   7.042   1.527   0.654
21880SOL     OW67646   6.708   0.694   0.704
21880SOL    HW167647   6.749   0.781   0.690
21880SOL    HW267648   6.685   0.697   0.798
21881SOL     OW67649   7.365   0.603   0.208
21881SOL    HW167650   7.304   0.622   0.135
21881SOL    HW267651   7.319   0.532   0.256
21882SOL     OW67652   6.328   1.156   1.053
21882SOL    HW167653   6.260   1.203   1.105
21882SOL    HW267654   6.362   1.229   0.999
21883SOL     OW67655   6.468   0.765   1.798
21883SOL    HW167656   6.443   0.830   1.864
21883SOL    HW267657   6.493   0.820   1.721
21884SOL     OW67658   6.274   1.000   0.639
21884SOL    HW167659   6.344   0.993   0.707
21884SOL    HW267660   6.207   1.054   0.684
21885SOL     OW67661   6.287   1.157   1.804
21885SOL    HW167662   6.328   1.241   1.833
21885SOL    HW267663   6.200   1.187   1.770
21886SOL     OW67664   5.912   1.420   1.064
21886SOL    HW167665   5.841   1.377   1.014
21886SOL    HW267666   5.960   1.474   0.998
21887SOL     OW67667   7.061   1.494   1.372
21887SOL    HW167668   7.112   1.577   1.380
21887SOL    HW267669   6.991   1.507   1.438
21888SOL     OW67670   6.023   0.412   1.501
21888SOL    HW167671   6.101   0.355   1.487
21888SOL    HW267672   5.950   0.349   1.501
21889SOL     OW67673   7.186   0.460   0.727
21889SOL    HW167674   7.106   0.491   0.682
21889SOL    HW267675   7.204   0.533   0.787
21890SOL     OW67676   5.810   1.721   0.481
21890SOL    HW167677   5.849   1.801   0.522
21890SOL    HW267678   5.856   1.720   0.396
21891SOL     OW67679   6.706   1.347   1.667
21891SOL    HW167680   6.754   1.347   1.750
21891SOL    HW267681   6.660   1.261   1.673
21892SOL     OW67682   5.836   1.430   0.517
21892SOL    HW167683   5.844   1.526   0.520
21892SOL    HW267684   5.771   1.411   0.586
21893SOL     OW67685   5.851   1.097   0.903
21893SOL    HW167686   5.859   1.018   0.958
21893SOL    HW267687   5.795   1.155   0.959
21894SOL     OW67688   6.180   1.795   1.405
21894SOL    HW167689   6.110   1.770   1.468
21894SOL    HW267690   6.206   1.883   1.437
21895SOL     OW67691   6.167   0.981   0.141
21895SOL    HW167692   6.201   1.053   0.086
21895SOL    HW267693   6.207   1.005   0.227
21896SOL     OW67694   7.201   0.093   1.491
21896SOL    HW167695   7.207   0.145   1.410
21896SOL    HW267696   7.154   0.153   1.551
21897SOL     OW67697   5.697   0.674   0.573
21897SOL    HW167698   5.685   0.583   0.605
21897SOL    HW267699   5.688   0.726   0.656
21898SOL     OW67700   7.434   1.739   0.364
21898SOL    HW167701   7.497   1.718   0.436
21898SOL    HW267702   7.462   1.829   0.340
21899SOL     OW67703   5.588   1.592   0.117
21899SOL    HW167704   5.589   1.502   0.153
21899SOL    HW267705   5.603   1.647   0.195
21900SOL     OW67706   7.290   0.917   0.620
21900SOL    HW167707   7.376   0.894   0.583
21900SOL    HW267708   7.256   0.980   0.554
21901SOL     OW67709   7.217   1.123   0.440
21901SOL    HW167710   7.286   1.154   0.379
21901SOL    HW267711   7.226   1.186   0.515
21902SOL     OW67712   5.707   0.736   1.572
21902SOL    HW167713   5.795   0.776   1.574
21902SOL    HW267714   5.651   0.814   1.589
21903SOL     OW67715   6.164   1.390   0.740
21903SOL    HW167716   6.127   1.299   0.743
21903SOL    HW267717   6.159   1.409   0.644
21904SOL     OW67718   6.868   1.231   1.427
21904SOL    HW167719   6.898   1.162   1.365
21904SOL    HW267720   6.921   1.212   1.507
21905SOL     OW67721   6.425   0.003   0.532
21905SOL    HW167722   6.457   0.092   0.504
21905SOL    HW267723   6.330   0.011   0.514
21906SOL     OW67724   5.760   0.969   1.262
21906SOL    HW167725   5.846   0.927   1.244
21906SOL    HW267726   5.698   0.912   1.214
21907SOL     OW67727   7.122   0.976   0.209
21907SOL    HW167728   7.041   0.928   0.234
21907SOL    HW267729   7.152   1.009   0.295
21908SOL     OW67730   6.761   1.797   1.618
21908SOL    HW167731   6.759   1.867   1.550
21908SOL    HW267732   6.786   1.719   1.565
21909SOL     OW67733   5.896   0.250   1.809
21909SOL    HW167734   5.937   0.329   1.847
21909SOL    HW267735   5.801   0.264   1.828
21910SOL     OW67736   7.063   1.433   0.967
21910SOL    HW167737   6.995   1.451   1.034
21910SOL    HW267738   7.035   1.345   0.933
21911SOL     OW67739   7.244   1.745   0.607
21911SOL    HW167740   7.249   1.706   0.518
21911SOL    HW267741   7.208   1.670   0.657
21912SOL     OW67742   6.174   0.707   0.271
21912SOL    HW167743   6.181   0.786   0.216
21912SOL    HW267744   6.105   0.729   0.336
21913SOL     OW67745   6.850   0.390   0.939
21913SOL    HW167746   6.769   0.335   0.947
21913SOL    HW267747   6.915   0.335   0.985
21914SOL     OW67748   7.157   1.665   0.320
21914SOL    HW167749   7.252   1.683   0.318
21914SOL    HW267750   7.139   1.643   0.228
21915SOL     OW67751   6.405   0.608   1.438
21915SOL    HW167752   6.387   0.583   1.531
21915SOL    HW267753   6.350   0.542   1.391
21916SOL     OW67754   6.985   0.490   1.672
21916SOL    HW167755   6.981   0.535   1.759
21916SOL    HW267756   7.044   0.415   1.689
21917SOL     OW67757   6.555   0.910   1.588
21917SOL    HW167758   6.610   0.838   1.549
21917SOL    HW267759   6.500   0.934   1.510
21918SOL     OW67760   6.575   0.425   1.184
21918SOL    HW167761   6.552   0.415   1.278
21918SOL    HW267762   6.558   0.337   1.149
21919SOL     OW67763   6.617   0.686   0.420
21919SOL    HW167764   6.647   0.692   0.513
21919SOL    HW267765   6.534   0.634   0.429
21920SOL     OW67766   5.689   0.835   0.790
21920SOL    HW167767   5.763   0.827   0.853
21920SOL    HW267768   5.647   0.918   0.819
21921SOL     OW67769   5.686   1.840   1.565
21921SOL    HW167770   5.705   1.822   1.660
21921SOL    HW267771   5.591   1.828   1.561
21922SOL     OW67772   6.479   0.365   0.197
21922SOL    HW167773   6.520   0.418   0.127
21922SOL    HW267774   6.467   0.279   0.153
21923SOL     OW67775   7.313   0.570   1.830
21923SOL    HW167776   7.274   0.647   1.783
21923SOL    HW267777   7.334   0.512   1.754
21924SOL     OW67778   6.945   1.148   0.574
21924SOL    HW167779   7.026   1.137   0.522
21924SOL    HW267780   6.899   1.217   0.522
21925SOL     OW67781   6.118   0.207   0.894
21925SOL    HW167782   6.143   0.216   0.988
21925SOL    HW267783   6.124   0.297   0.859
21926SOL     OW67784   6.583   1.438   0.491
21926SOL    HW167785   6.553   1.512   0.434
21926SOL    HW267786   6.582   1.479   0.579
21927SOL     OW67787   5.933   1.814   0.860
21927SOL    HW167788   5.984   1.732   0.867
21927SOL    HW267789   6.002   1.882   0.875
21928SOL     OW67790   7.408   1.043   0.880
21928SOL    HW167791   7.348   1.027   0.805
21928SOL    HW267792   7.351   1.025   0.956
21929SOL     OW67793   6.807   1.561   1.491
21929SOL    HW167794   6.787   1.496   1.560
21929SOL    HW267795   6.761   1.522   1.415
21930SOL     OW67796   5.905   0.967   0.273
21930SOL    HW167797   5.988   0.968   0.222
21930SOL    HW267798   5.874   0.876   0.262
21931SOL     OW67799   7.068   0.750   0.703
21931SOL    HW167800   7.056   0.716   0.793
21931SOL    HW267801   7.141   0.815   0.714
21932SOL     OW67802   6.048   1.270   1.718
21932SOL    HW167803   6.004   1.275   1.630
21932SOL    HW267804   5.971   1.278   1.777
21933SOL     OW67805   6.688   1.766   0.207
21933SOL    HW167806   6.635   1.712   0.269
21933SOL    HW267807   6.716   1.699   0.142
21934SOL     OW67808   5.762   0.305   1.502
21934SOL    HW167809   5.683   0.352   1.535
21934SOL    HW267810   5.743   0.215   1.533
21935SOL     OW67811   7.204   1.350   0.103
21935SOL    HW167812   7.162   1.434   0.077
21935SOL    HW267813   7.153   1.284   0.053
21936SOL     OW67814   6.078   1.689   0.342
21936SOL    HW167815   6.099   1.766   0.398
21936SOL    HW267816   6.032   1.732   0.268
21937SOL     OW67817   6.988   0.100   0.448
21937SOL    HW167818   6.981   0.071   0.356
21937SOL    HW267819   7.084   0.107   0.462
21938SOL     OW67820   5.832   1.794   1.230
21938SOL    HW167821   5.887   1.724   1.269
21938SOL    HW267822   5.821   1.764   1.139
21939SOL     OW67823   6.533   1.699   0.894
21939SOL    HW167824   6.620   1.660   0.906
21939SOL    HW267825   6.493   1.642   0.826
21940SOL     OW67826   5.950   0.692   0.459
21940SOL    HW167827   5.967   0.597   0.476
21940SOL    HW267828   5.859   0.701   0.491
21941SOL     OW67829   7.117   0.231   1.713
21941SOL    HW167830   7.128   0.237   1.810
21941SOL    HW267831   7.047   0.164   1.709
21942SOL     OW67832   6.186   0.107   0.095
21942SOL    HW167833   6.273   0.070   0.117
21942SOL    HW267834   6.165   0.069   0.009
21943SOL     OW67835   6.349   0.283   1.753
21943SOL    HW167836   6.434   0.234   1.749
21943SOL    HW267837   6.305   0.241   1.829
21944SOL     OW67838   6.464   1.535   1.195
21944SOL    HW167839   6.460   1.507   1.102
21944SOL    HW267840   6.529   1.473   1.232
21945SOL     OW67841   6.906   0.588   1.437
21945SOL    HW167842   6.949   0.555   1.519
21945SOL    HW267843   6.959   0.667   1.416
21946SOL     OW67844   6.395   1.393   0.931
21946SOL    HW167845   6.482   1.394   0.886
21946SOL    HW267846   6.332   1.390   0.856
21947SOL     OW67847   6.529   0.535   0.897
21947SOL    HW167848   6.510   0.506   0.805
21947SOL    HW267849   6.553   0.451   0.940
21948SOL     OW67850   6.154   0.054   0.512
21948SOL    HW167851   6.064   0.041   0.547
21948SOL    HW267852   6.143   0.136   0.462
21949SOL     OW67853   7.026   1.166   0.011
21949SOL    HW167854   7.065   1.101   0.072
21949SOL    HW267855   6.948   1.197   0.058
21950SOL     OW67856   5.876   0.028   0.216
21950SOL    HW167857   5.890   0.095   0.146
21950SOL    HW267858   5.957  11.078   0.211
21951SOL     OW67859   6.523   0.249   0.458
21951SOL    HW167860   6.499   0.297   0.377
21951SOL    HW267861   6.619   0.259   0.459
21952SOL     OW67862   6.675   0.711   1.469
21952SOL    HW167863   6.608   0.640   1.473
21952SOL    HW267864   6.758   0.661   1.462
21953SOL     OW67865   6.835   1.573   0.771
21953SOL    HW167866   6.831   1.646   0.707
21953SOL    HW267867   6.890   1.611   0.840
21954SOL     OW67868   6.063   1.140   0.742
21954SOL    HW167869   5.992   1.114   0.805
21954SOL    HW267870   6.016   1.128   0.657
21955SOL     OW67871   6.853   1.809   0.626
21955SOL    HW167872   6.893   1.887   0.583
21955SOL    HW267873   6.787   1.850   0.685
21956SOL     OW67874   6.601   0.540   0.000
21956SOL    HW167875   6.566   0.630  11.095
21956SOL    HW267876   6.690   0.556   0.034
21957SOL     OW67877   5.645   0.565   1.383
21957SOL    HW167878   5.740   0.550   1.369
21957SOL    HW267879   5.648   0.633   1.454
21958SOL     OW67880   6.149   0.220   1.177
21958SOL    HW167881   6.192   0.164   1.243
21958SOL    HW267882   6.057   0.223   1.211
21959SOL     OW67883   6.476   0.437   0.649
21959SOL    HW167884   6.420   0.493   0.594
21959SOL    HW267885   6.487   0.358   0.592
21960SOL     OW67886   6.573   0.016   0.775
21960SOL    HW167887   6.519   0.029   0.695
21960SOL    HW267888   6.554  11.025   0.798
21961SOL     OW67889   7.007   1.187   0.878
21961SOL    HW167890   6.928   1.132   0.892
21961SOL    HW267891   7.018   1.178   0.782
21962SOL     OW67892   7.072   0.619   0.964
21962SOL    HW167893   7.008   0.547   0.977
21962SOL    HW267894   7.130   0.610   1.043
21963SOL     OW67895   7.450   0.811   0.364
21963SOL    HW167896   7.499   0.755   0.427
21963SOL    HW267897   7.418   0.746   0.300
21964SOL     OW67898   6.085   1.422   0.132
21964SOL    HW167899   6.009   1.405   0.191
21964SOL    HW267900   6.080   1.350   0.067
21965SOL     OW67901   7.249   1.289   0.652
21965SOL    HW167902   7.344   1.297   0.668
21965SOL    HW267903   7.214   1.376   0.676
21966SOL     OW67904   6.966   0.603   0.079
21966SOL    HW167905   6.932   0.569   0.164
21966SOL    HW267906   7.025   0.532   0.050
21967SOL     OW67907   6.099   0.254   0.317
21967SOL    HW167908   6.116   0.193   0.243
21967SOL    HW267909   6.082   0.338   0.269
21968SOL     OW67910   7.319   1.230   1.572
21968SOL    HW167911   7.409   1.194   1.578
21968SOL    HW267912   7.337   1.324   1.586
21969SOL     OW67913   6.651   1.372   1.342
21969SOL    HW167914   6.572   1.336   1.387
21969SOL    HW267915   6.723   1.320   1.383
21970SOL     OW67916   7.191   1.618   1.631
21970SOL    HW167917   7.193   1.651   1.540
21970SOL    HW267918   7.271   1.563   1.634
21971SOL     OW67919   6.711   1.229   1.102
21971SOL    HW167920   6.647   1.263   1.165
21971SOL    HW267921   6.674   1.258   1.016
21972SOL     OW67922   7.186   1.086   1.067
21972SOL    HW167923   7.195   1.152   1.138
21972SOL    HW267924   7.135   1.135   1.001
21973SOL     OW67925   6.475   0.114   1.387
21973SOL    HW167926   6.510   0.080   1.302
21973SOL    HW267927   6.557   0.132   1.435
21974SOL     OW67928   6.581   1.124   1.746
21974SOL    HW167929   6.489   1.150   1.761
21974SOL    HW267930   6.573   1.051   1.681
21975SOL     OW67931   6.307   1.045   0.371
21975SOL    HW167932   6.291   1.014   0.463
21975SOL    HW267933   6.390   0.995   0.348
21976SOL     OW67934   5.992   0.800   1.275
21976SOL    HW167935   6.073   0.793   1.330
21976SOL    HW267936   5.956   0.710   1.279
21977SOL     OW67937   6.879   0.403   1.248
21977SOL    HW167938   6.886   0.464   1.325
21977SOL    HW267939   6.791   0.425   1.213
21978SOL     OW67940   5.660   1.564   1.349
21978SOL    HW167941   5.661   1.657   1.320
21978SOL    HW267942   5.755   1.541   1.344
21979SOL     OW67943   5.948   1.123   0.501
21979SOL    HW167944   5.941   1.202   0.447
21979SOL    HW267945   5.936   1.052   0.436
21980SOL     OW67946   6.133   0.544   0.860
21980SOL    HW167947   6.159   0.611   0.793
21980SOL    HW267948   6.204   0.552   0.927
21981SOL     OW67949   6.819   1.333   0.405
21981SOL    HW167950   6.869   1.412   0.433
21981SOL    HW267951   6.729   1.357   0.432
21982SOL     OW67952   6.884   1.467   1.166
21982SOL    HW167953   6.945   1.460   1.242
21982SOL    HW267954   6.829   1.388   1.175
21983SOL     OW67955   7.163   0.634   0.467
21983SOL    HW167956   7.119   0.674   0.545
21983SOL    HW267957   7.189   0.712   0.417
21984SOL     OW67958   5.922   1.504   1.311
21984SOL    HW167959   5.916   1.470   1.219
21984SOL    HW267960   6.015   1.534   1.312
21985SOL     OW67961   6.024   0.722   1.622
21985SOL    HW167962   6.081   0.768   1.559
21985SOL    HW267963   6.047   0.630   1.606
21986SOL     OW67964   7.218   0.772   1.685
21986SOL    HW167965   7.127   0.805   1.684
21986SOL    HW267966   7.256   0.819   1.608
21987SOL     OW67967   6.584   0.151   1.766
21987SOL    HW167968   6.648   0.222   1.748
21987SOL    HW267969   6.635   0.074   1.731
21988SOL     OW67970   6.076   0.059   1.739
21988SOL    HW167971   6.019   0.000   1.690
21988SOL    HW267972   6.015   0.133   1.760
21989SOL     OW67973   6.153   0.903   1.040
21989SOL    HW167974   6.203   0.986   1.040
21989SOL    HW267975   6.111   0.902   1.127
21990SOL     OW67976   6.935   0.881   1.013
21990SOL    HW167977   6.854   0.837   0.983
21990SOL    HW267978   6.995   0.807   1.023
21991SOL     OW67979   6.817   0.508   0.281
21991SOL    HW167980   6.821   0.436   0.346
21991SOL    HW267981   6.750   0.566   0.320
21992SOL     OW67982   5.897   0.217   1.273
21992SOL    HW167983   5.852   0.260   1.349
21992SOL    HW267984   5.847   0.135   1.265
21993SOL     OW67985   5.612   1.298   1.286
21993SOL    HW167986   5.635   1.237   1.359
21993SOL    HW267987   5.625   1.386   1.324
21994SOL     OW67988   6.309   0.606   1.057
21994SOL    HW167989   6.395   0.589   1.014
21994SOL    HW267990   6.293   0.700   1.041
21995SOL     OW67991   7.356   0.965   1.843
21995SOL    HW167992   7.310   0.909   1.779
21995SOL    HW267993   7.292   0.971   1.914
21996SOL     OW67994   5.864   0.026   0.617
21996SOL    HW167995   5.859   0.122   0.622
21996SOL    HW267996   5.873   0.003   0.711
21997SOL     OW67997   7.184   0.390   0.328
21997SOL    HW167998   7.205   0.318   0.389
21997SOL    HW267999   7.170   0.466   0.389
21998SOL     OW68000   6.670   0.749   0.976
21998SOL    HW168001   6.640   0.767   1.067
21998SOL    HW268002   6.628   0.663   0.958
21999SOL     OW68003   6.560   1.564   1.703
21999SOL    HW168004   6.555   1.619   1.621
21999SOL    HW268005   6.595   1.479   1.669
22000SOL     OW68006   7.433   1.483   1.602
22000SOL    HW168007   7.453   1.516   1.512
22000SOL    HW268008   7.513   1.512   1.651
22001SOL     OW68009   5.945   0.902   1.797
22001SOL    HW168010   6.027   0.919   1.845
22001SOL    HW268011   5.969   0.825   1.742
22002SOL     OW68012   7.119   0.263   0.091
22002SOL    HW168013   7.046   0.213   0.129
22002SOL    HW268014   7.151   0.314   0.168
22003SOL     OW68015   6.865   0.841   0.023
22003SOL    HW168016   6.905   0.752   0.039
22003SOL    HW268017   6.904   0.865  11.039
22004SOL     OW68018   6.649   1.366   0.846
22004SOL    HW168019   6.664   1.285   0.793
22004SOL    HW268020   6.718   1.427   0.813
22005SOL     OW68021   5.881   0.824   0.990
22005SOL    HW168022   5.976   0.841   0.980
22005SOL    HW268023   5.880   0.730   1.014
22006SOL     OW68024   5.912   0.538   1.000
22006SOL    HW168025   5.883   0.446   0.984
22006SOL    HW268026   5.988   0.544   0.937
22007SOL     OW68027   6.744   0.373   1.694
22007SOL    HW168028   6.696   0.429   1.759
22007SOL    HW268029   6.831   0.416   1.691
22008SOL     OW68030   6.709   0.258   1.447
22008SOL    HW168031   6.732   0.282   1.538
22008SOL    HW268032   6.786   0.284   1.397
22009SOL     OW68033   5.571   1.336   0.228
22009SOL    HW168034   5.489   1.340   0.173
22009SOL    HW268035   5.582   1.239   0.238
22010SOL     OW68036   5.683   1.779   0.934
22010SOL    HW168037   5.653   1.708   0.875
22010SOL    HW268038   5.775   1.793   0.904
22011SOL     OW68039   6.075   1.570   0.919
22011SOL    HW168040   6.145   1.639   0.922
22011SOL    HW268041   6.109   1.507   0.851
22012SOL     OW68042   6.558   0.770   1.233
22012SOL    HW168043   6.617   0.747   1.307
22012SOL    HW268044   6.474   0.735   1.266
22013SOL     OW68045   5.617   0.538   1.104
22013SOL    HW168046   5.696   0.515   1.054
22013SOL    HW268047   5.651   0.544   1.195
22014SOL     OW68048   5.786   0.518   1.712
22014SOL    HW168049   5.841   0.466   1.652
22014SOL    HW268050   5.759   0.594   1.656
22015SOL     OW68051   6.976   0.905   1.647
22015SOL    HW168052   6.997   1.000   1.647
22015SOL    HW268053   6.968   0.886   1.551
22016SOL     OW68054   6.385   0.563   0.386
22016SOL    HW168055   6.410   0.498   0.319
22016SOL    HW268056   6.314   0.613   0.342
22017SOL     OW68057   7.226   0.621   1.186
22017SOL    HW168058   7.202   0.553   1.251
22017SOL    HW268059   7.314   0.591   1.158
22018SOL     OW68060   5.835   1.544   1.724
22018SOL    HW168061   5.823   1.611   1.792
22018SOL    HW268062   5.843   1.462   1.776
22019SOL     OW68063   6.249   0.464   1.273
22019SOL    HW168064   6.219   0.380   1.236
22019SOL    HW268065   6.264   0.519   1.193
22020SOL     OW68066   6.509   1.699   1.474
22020SOL    HW168067   6.501   1.666   1.383
22020SOL    HW268068   6.508   1.796   1.462
22021SOL     OW68069   6.050   0.482   0.193
22021SOL    HW168070   6.110   0.557   0.209
22021SOL    HW268071   5.964   0.527   0.198
22022SOL     OW68072   5.692   1.125   1.469
22022SOL    HW168073   5.704   1.071   1.551
22022SOL    HW268074   5.718   1.061   1.399
22023SOL     OW68075   6.898   1.051   1.229
22023SOL    HW168076   6.920   0.997   1.150
22023SOL    HW268077   6.826   1.107   1.194
22024SOL     OW68078   6.894   0.860   0.301
22024SOL    HW168079   6.814   0.825   0.343
22024SOL    HW268080   6.872   0.853   0.207
22025SOL     OW68081   7.356   1.752   1.133
22025SOL    HW168082   7.425   1.768   1.066
22025SOL    HW268083   7.339   1.657   1.119
22026SOL     OW68084   6.827   1.725   1.106
22026SOL    HW168085   6.919   1.746   1.082
22026SOL    HW268086   6.833   1.630   1.130
22027SOL     OW68087   5.685   1.253   1.034
22027SOL    HW168088   5.654   1.271   1.125
22027SOL    HW268089   5.608   1.208   0.995
22028SOL     OW68090   6.277   1.641   1.737
22028SOL    HW168091   6.241   1.727   1.713
22028SOL    HW268092   6.369   1.646   1.708
22029SOL     OW68093   6.473   0.101   0.084
22029SOL    HW168094   6.538   0.066   0.022
22029SOL    HW268095   6.506   0.062   0.167
22030SOL     OW68096   7.284   0.118   0.494
22030SOL    HW168097   7.362   0.129   0.438
22030SOL    HW268098   7.315   0.056   0.561
22031SOL     OW68099   6.943   1.566   0.478
22031SOL    HW168100   7.015   1.583   0.414
22031SOL    HW268101   6.912   1.656   0.496
22032SOL     OW68102   5.734   1.799   1.825
22032SOL    HW168103   5.692   1.727   1.874
22032SOL    HW268104   5.782   1.845   1.897
22033SOL     OW68105   6.846   0.913   0.655
22033SOL    HW168106   6.927   0.860   0.665
22033SOL    HW268107   6.881   0.997   0.619
22034SOL     OW68108   6.385   1.257   1.416
22034SOL    HW168109   6.360   1.305   1.497
22034SOL    HW268110   6.306   1.270   1.361
22035SOL     OW68111   6.284   1.605   0.155
22035SOL    HW168112   6.270   1.625   0.062
22035SOL    HW268113   6.209   1.545   0.174
22036SOL     OW68114   7.205   1.721   1.383
22036SOL    HW168115   7.254   1.736   1.301
22036SOL    HW268116   7.194   1.811   1.419
22037SOL     OW68117   7.440   0.116   0.957
22037SOL    HW168118   7.474   0.058   0.887
22037SOL    HW268119   7.367   0.163   0.913
22038SOL     OW68120   5.844   0.300   0.714
22038SOL    HW168121   5.757   0.339   0.690
22038SOL    HW268122   5.842   0.303   0.811
22039SOL     OW68123   6.805   1.592   0.033
22039SOL    HW168124   6.803   1.499   0.063
22039SOL    HW268125   6.733   1.594  11.068
22040SOL     OW68126   6.406   0.995   1.379
22040SOL    HW168127   6.437   0.989   1.287
22040SOL    HW268128   6.405   1.091   1.395
22041SOL     OW68129   6.515   0.916   0.294
22041SOL    HW168130   6.574   0.942   0.220
22041SOL    HW268131   6.548   0.829   0.321
22042SOL     OW68132   7.081   1.596   0.043
22042SOL    HW168133   6.984   1.605   0.040
22042SOL    HW268134   7.109   1.622  11.056
22043SOL     OW68135   5.925   1.277   1.487
22043SOL    HW168136   5.921   1.340   1.413
22043SOL    HW268137   5.845   1.224   1.474
22044SOL     OW68138   7.191   1.289   1.265
22044SOL    HW168139   7.238   1.270   1.347
22044SOL    HW268140   7.131   1.359   1.295
22045SOL     OW68141   6.644   1.121   0.733
22045SOL    HW168142   6.565   1.071   0.759
22045SOL    HW268143   6.696   1.053   0.688
22046SOL     OW68144   6.632   0.238   0.963
22046SOL    HW168145   6.618   0.183   0.884
22046SOL    HW268146   6.607   0.175   1.032
22047SOL     OW68147   6.192   1.478   0.486
22047SOL    HW168148   6.241   1.435   0.414
22047SOL    HW268149   6.138   1.544   0.438
22048SOL     OW68150   7.293   0.387   1.379
22048SOL    HW168151   7.357   0.460   1.372
22048SOL    HW268152   7.335   0.320   1.322
22049SOL     OW68153   5.831   1.376   0.259
22049SOL    HW168154   5.736   1.363   0.241
22049SOL    HW268155   5.831   1.404   0.353
22050SOL     OW68156   5.714   0.994   1.695
22050SOL    HW168157   5.642   0.985   1.762
22050SOL    HW268158   5.794   0.969   1.746
22051SOL     OW68159   6.248   0.221   1.489
22051SOL    HW168160   6.329   0.180   1.453
22051SOL    HW268161   6.279   0.252   1.576
22052SOL     OW68162   5.677   0.402   0.031
22052SOL    HW168163   5.611   0.342  11.094
22052SOL    HW268164   5.659   0.481  11.081
22053SOL     OW68165   7.031   0.851   1.382
22053SOL    HW168166   6.995   0.918   1.322
22053SOL    HW268167   7.126   0.869   1.377
22054SOL     OW68168   5.637   0.159   0.336
22054SOL    HW168169   5.638   0.222   0.263
22054SOL    HW268170   5.723   0.115   0.326
22055SOL     OW68171   6.768   1.338   0.125
22055SOL    HW168172   6.671   1.333   0.113
22055SOL    HW268173   6.779   1.319   0.220
22056SOL     OW68174   6.210   0.795   1.422
22056SOL    HW168175   6.264   0.876   1.420
22056SOL    HW268176   6.280   0.727   1.432
22057SOL     OW68177   7.104   1.749   0.943
22057SOL    HW168178   7.128   1.815   0.876
22057SOL    HW268179   7.174   1.759   1.008
22058SOL     OW68180   6.334   0.552   1.683
22058SOL    HW168181   6.368   0.614   1.749
22058SOL    HW268182   6.332   0.466   1.729
22059SOL     OW68183   7.046   1.182   1.626
22059SOL    HW168184   7.038   1.187   1.723
22059SOL    HW268185   7.140   1.202   1.612
22060SOL     OW68186   5.960   1.734   1.562
22060SOL    HW168187   5.874   1.777   1.549
22060SOL    HW268188   5.933   1.649   1.602
22061SOL     OW68189   7.283   0.897   1.232
22061SOL    HW168190   7.254   0.810   1.201
22061SOL    HW268191   7.243   0.958   1.167
22062SOL     OW68192   6.811   0.309   0.465
22062SOL    HW168193   6.877   0.237   0.459
22062SOL    HW268194   6.838   0.355   0.547
22063SOL     OW68195   6.169   0.749   0.675
22063SOL    HW168196   6.210   0.836   0.658
22063SOL    HW268197   6.097   0.746   0.611
22064SOL     OW68198   7.350   0.377   1.645
22064SOL    HW168199   7.325   0.384   1.551
22064SOL    HW268200   7.282   0.316   1.677
22065SOL     OW68201   7.308   0.935   1.494
22065SOL    HW168202   7.318   1.030   1.498
22065SOL    HW268203   7.324   0.917   1.399
22066SOL     OW68204   6.481   1.359   0.050
22066SOL    HW168205   6.401   1.365   0.105
22066SOL    HW268206   6.483   1.445   0.006
22067SOL     OW68207   6.226   1.791   0.909
22067SOL    HW168208   6.212   1.887   0.907
22067SOL    HW268209   6.321   1.783   0.927
22068SOL     OW68210   6.461   0.953   0.842
22068SOL    HW168211   6.507   0.875   0.876
22068SOL    HW268212   6.444   1.005   0.922
22069SOL     OW68213   6.640   0.993   0.065
22069SOL    HW168214   6.648   1.055  11.093
22069SOL    HW268215   6.722   0.941   0.057
22070SOL     OW68216   7.427   1.556   0.821
22070SOL    HW168217   7.333   1.548   0.801
22070SOL    HW268218   7.437   1.502   0.900
22071SOL     OW68219   5.833   1.318   1.871
22071SOL    HW168220   5.755   1.267   1.846
22071SOL    HW268221   5.820   1.326   1.967
22072SOL     OW68222   5.672   1.250   0.655
22072SOL    HW168223   5.698   1.206   0.737
22072SOL    HW268224   5.740   1.220   0.594
22073SOL     OW68225   6.260   1.395   1.613
22073SOL    HW168226   6.181   1.346   1.643
22073SOL    HW268227   6.247   1.482   1.655
22074SOL     OW68228   7.407   0.195   1.228
22074SOL    HW168229   7.394   0.100   1.246
22074SOL    HW268230   7.419   0.193   1.131
22075SOL     OW68231   5.986   0.424   0.515
22075SOL    HW168232   6.027   0.355   0.460
22075SOL    HW268233   5.958   0.376   0.595
22076SOL     OW68234   7.314   1.494   1.087
22076SOL    HW168235   7.226   1.475   1.048
22076SOL    HW268236   7.316   1.432   1.161
22077SOL     OW68237   5.906   0.545   1.284
22077SOL    HW168238   5.978   0.502   1.335
22077SOL    HW268239   5.931   0.528   1.191
22078SOL     OW68240   6.404   1.572   0.680
22078SOL    HW168241   6.397   1.603   0.589
22078SOL    HW268242   6.316   1.535   0.694
22079SOL     OW68243   7.032   0.258   1.086
22079SOL    HW168244   7.039   0.172   1.128
22079SOL    HW268245   6.984   0.311   1.154
22080SOL     OW68246   6.582   0.007   1.156
22080SOL    HW168247   6.537  11.023   1.156
22080SOL    HW268248   6.676  11.083   1.149
22081SOL     OW68249   6.351   1.334   0.324
22081SOL    HW168250   6.332   1.240   0.335
22081SOL    HW268251   6.435   1.343   0.371
22082SOL     OW68252   6.183   1.561   1.262
22082SOL    HW168253   6.182   1.646   1.309
22082SOL    HW268254   6.278   1.555   1.241
22083SOL     OW68255   6.908   0.059   0.158
22083SOL    HW168256   6.922   0.014   0.074
22083SOL    HW268257   6.818   0.031   0.183
22084SOL     OW68258   6.863   0.471   0.680
22084SOL    HW168259   6.802   0.546   0.673
22084SOL    HW268260   6.856   0.447   0.775
22085SOL     OW68261   7.210   0.221   0.859
22085SOL    HW168262   7.141   0.232   0.926
22085SOL    HW268263   7.198   0.303   0.806
22086SOL     OW68264   5.629   1.081   0.282
22086SOL    HW168265   5.726   1.078   0.289
22086SOL    HW268266   5.607   0.988   0.304
22087SOL     OW68267   6.482   1.638   0.348
22087SOL    HW168268   6.404   1.617   0.294
22087SOL    HW268269   6.454   1.722   0.393
22088SOL     OW68270   5.823   0.621   1.993
22088SOL    HW168271   5.731   0.618   2.020
22088SOL    HW268272   5.819   0.618   1.896
22089SOL     OW68273   5.792   0.302   2.852
22089SOL    HW168274   5.818   0.287   2.944
22089SOL    HW268275   5.727   0.231   2.838
22090SOL     OW68276   5.592   0.408   2.502
22090SOL    HW168277   5.512   0.434   2.551
22090SOL    HW268278   5.560   0.332   2.452
22091SOL     OW68279   6.170   1.316   3.024
22091SOL    HW168280   6.077   1.291   3.010
22091SOL    HW268281   6.163   1.398   3.074
22092SOL     OW68282   7.130   1.525   2.580
22092SOL    HW168283   7.097   1.494   2.668
22092SOL    HW268284   7.060   1.499   2.519
22093SOL     OW68285   6.714   0.690   2.569
22093SOL    HW168286   6.750   0.779   2.552
22093SOL    HW268287   6.684   0.700   2.661
22094SOL     OW68288   7.362   0.602   2.089
22094SOL    HW168289   7.347   0.593   1.993
22094SOL    HW268290   7.313   0.525   2.123
22095SOL     OW68291   6.342   1.161   2.894
22095SOL    HW168292   6.277   1.212   2.945
22095SOL    HW268293   6.376   1.230   2.836
22096SOL     OW68294   6.469   0.761   3.665
22096SOL    HW168295   6.442   0.819   3.738
22096SOL    HW268296   6.496   0.824   3.596
22097SOL     OW68297   6.277   1.039   2.518
22097SOL    HW168298   6.341   1.009   2.583
22097SOL    HW268299   6.205   1.075   2.573
22098SOL     OW68300   6.284   1.156   3.664
22098SOL    HW168301   6.326   1.238   3.698
22098SOL    HW268302   6.196   1.187   3.636
22099SOL     OW68303   5.908   1.433   2.909
22099SOL    HW168304   5.840   1.362   2.918
22099SOL    HW268305   5.876   1.477   2.829
22100SOL     OW68306   7.052   1.493   3.240
22100SOL    HW168307   7.107   1.575   3.242
22100SOL    HW268308   6.980   1.516   3.301
22101SOL     OW68309   6.027   0.409   3.352
22101SOL    HW168310   6.101   0.347   3.347
22101SOL    HW268311   5.949   0.351   3.360
22102SOL     OW68312   7.205   0.451   2.604
22102SOL    HW168313   7.145   0.483   2.535
22102SOL    HW268314   7.189   0.516   2.675
22103SOL     OW68315   5.813   1.710   2.350
22103SOL    HW168316   5.838   1.795   2.390
22103SOL    HW268317   5.866   1.709   2.268
22104SOL     OW68318   6.712   1.351   3.516
22104SOL    HW168319   6.761   1.351   3.599
22104SOL    HW268320   6.668   1.264   3.523
22105SOL     OW68321   5.840   1.440   2.407
22105SOL    HW168322   5.827   1.536   2.404
22105SOL    HW268323   5.765   1.409   2.461
22106SOL     OW68324   5.857   1.099   2.770
22106SOL    HW168325   5.850   1.017   2.821
22106SOL    HW268326   5.796   1.158   2.819
22107SOL     OW68327   6.190   1.801   3.266
22107SOL    HW168328   6.124   1.776   3.333
22107SOL    HW268329   6.221   1.888   3.298
22108SOL     OW68330   6.167   0.988   1.979
22108SOL    HW168331   6.215   1.044   1.915
22108SOL    HW268332   6.206   1.019   2.063
22109SOL     OW68333   7.182   0.111   3.341
22109SOL    HW168334   7.188   0.162   3.260
22109SOL    HW268335   7.154   0.178   3.405
22110SOL     OW68336   5.715   0.656   2.431
22110SOL    HW168337   5.681   0.569   2.457
22110SOL    HW268338   5.704   0.709   2.513
22111SOL     OW68339   7.431   1.733   2.215
22111SOL    HW168340   7.504   1.716   2.278
22111SOL    HW268341   7.450   1.824   2.187
22112SOL     OW68342   5.646   1.591   1.974
22112SOL    HW168343   5.629   1.497   1.987
22112SOL    HW268344   5.616   1.629   2.058
22113SOL     OW68345   7.271   0.914   2.507
22113SOL    HW168346   7.351   0.879   2.467
22113SOL    HW268347   7.237   0.972   2.437
22114SOL     OW68348   7.230   1.118   2.306
22114SOL    HW168349   7.320   1.116   2.270
22114SOL    HW268350   7.238   1.186   2.376
22115SOL     OW68351   5.707   0.741   3.439
22115SOL    HW168352   5.794   0.784   3.451
22115SOL    HW268353   5.647   0.816   3.454
22116SOL     OW68354   6.142   1.414   2.622
22116SOL    HW168355   6.110   1.320   2.623
22116SOL    HW268356   6.141   1.431   2.525
22117SOL     OW68357   6.870   1.231   3.283
22117SOL    HW168358   6.902   1.157   3.228
22117SOL    HW268359   6.926   1.221   3.363
22118SOL     OW68360   6.412   0.006   2.387
22118SOL    HW168361   6.443   0.096   2.362
22118SOL    HW268362   6.318   0.010   2.361
22119SOL     OW68363   5.766   0.956   3.119
22119SOL    HW168364   5.849   0.914   3.092
22119SOL    HW268365   5.699   0.907   3.071
22120SOL     OW68366   7.121   0.964   2.038
22120SOL    HW168367   7.043   0.914   2.070
22120SOL    HW268368   7.159   0.996   2.122
22121SOL     OW68369   6.758   1.801   3.476
22121SOL    HW168370   6.771   1.863   3.403
22121SOL    HW268371   6.788   1.718   3.437
22122SOL     OW68372   5.904   0.249   3.705
22122SOL    HW168373   5.944   0.337   3.715
22122SOL    HW268374   5.810   0.268   3.726
22123SOL     OW68375   7.056   1.422   2.819
22123SOL    HW168376   6.995   1.442   2.893
22123SOL    HW268377   7.026   1.333   2.791
22124SOL     OW68378   7.240   1.737   2.466
22124SOL    HW168379   7.223   1.702   2.378
22124SOL    HW268380   7.210   1.663   2.522
22125SOL     OW68381   6.172   0.720   2.122
22125SOL    HW168382   6.181   0.804   2.073
22125SOL    HW268383   6.106   0.742   2.189
22126SOL     OW68384   6.854   0.369   2.794
22126SOL    HW168385   6.768   0.324   2.806
22126SOL    HW268386   6.914   0.314   2.848
22127SOL     OW68387   7.159   1.643   2.175
22127SOL    HW168388   7.253   1.669   2.179
22127SOL    HW268389   7.149   1.636   2.078
22128SOL     OW68390   6.401   0.614   3.312
22128SOL    HW168391   6.374   0.589   3.403
22128SOL    HW268392   6.352   0.549   3.258
22129SOL     OW68393   6.987   0.494   3.531
22129SOL    HW168394   6.980   0.548   3.612
22129SOL    HW268395   7.046   0.421   3.558
22130SOL     OW68396   6.559   0.908   3.456
22130SOL    HW168397   6.615   0.836   3.421
22130SOL    HW268398   6.502   0.925   3.379
22131SOL     OW68399   6.587   0.387   3.092
22131SOL    HW168400   6.499   0.403   3.128
22131SOL    HW268401   6.569   0.337   3.011
22132SOL     OW68402   6.633   0.689   2.285
22132SOL    HW168403   6.646   0.693   2.381
22132SOL    HW268404   6.547   0.644   2.278
22133SOL     OW68405   5.702   0.823   2.639
22133SOL    HW168406   5.765   0.819   2.713
22133SOL    HW268407   5.653   0.905   2.659
22134SOL     OW68408   5.696   1.838   3.424
22134SOL    HW168409   5.707   1.817   3.520
22134SOL    HW268410   5.605   1.812   3.408
22135SOL     OW68411   6.471   0.354   2.083
22135SOL    HW168412   6.512   0.404   2.010
22135SOL    HW268413   6.452   0.270   2.039
22136SOL     OW68414   7.313   0.557   3.696
22136SOL    HW168415   7.271   0.635   3.654
22136SOL    HW268416   7.335   0.505   3.616
22137SOL     OW68417   6.952   1.150   2.423
22137SOL    HW168418   7.031   1.139   2.369
22137SOL    HW268419   6.901   1.213   2.370
22138SOL     OW68420   6.122   0.197   2.740
22138SOL    HW168421   6.143   0.211   2.835
22138SOL    HW268422   6.132   0.285   2.701
22139SOL     OW68423   6.564   1.445   2.355
22139SOL    HW168424   6.526   1.506   2.289
22139SOL    HW268425   6.600   1.506   2.420
22140SOL     OW68426   5.932   1.821   2.715
22140SOL    HW168427   6.002   1.773   2.671
22140SOL    HW268428   5.977   1.903   2.741
22141SOL     OW68429   7.400   1.041   2.722
22141SOL    HW168430   7.342   1.016   2.648
22141SOL    HW268431   7.342   1.029   2.798
22142SOL     OW68432   6.810   1.560   3.351
22142SOL    HW168433   6.791   1.498   3.424
22142SOL    HW268434   6.760   1.519   3.279
22143SOL     OW68435   5.895   0.965   2.121
22143SOL    HW168436   5.971   0.979   2.062
22143SOL    HW268437   5.867   0.875   2.098
22144SOL     OW68438   7.062   0.746   2.573
22144SOL    HW168439   7.057   0.704   2.661
22144SOL    HW268440   7.138   0.806   2.582
22145SOL     OW68441   6.050   1.272   3.592
22145SOL    HW168442   6.009   1.272   3.503
22145SOL    HW268443   5.970   1.275   3.648
22146SOL     OW68444   6.681   1.771   2.103
22146SOL    HW168445   6.609   1.719   2.142
22146SOL    HW268446   6.698   1.725   2.019
22147SOL     OW68447   5.765   0.303   3.366
22147SOL    HW168448   5.683   0.351   3.386
22147SOL    HW268449   5.738   0.212   3.392
22148SOL     OW68450   7.208   1.367   1.958
22148SOL    HW168451   7.172   1.451   1.926
22148SOL    HW268452   7.146   1.301   1.923
22149SOL     OW68453   6.041   1.736   2.181
22149SOL    HW168454   6.090   1.786   2.248
22149SOL    HW268455   6.111   1.706   2.121
22150SOL     OW68456   6.986   0.079   2.309
22150SOL    HW168457   6.983   0.070   2.212
22150SOL    HW268458   7.077   0.105   2.327
22151SOL     OW68459   5.842   1.805   3.094
22151SOL    HW168460   5.885   1.742   3.152
22151SOL    HW268461   5.806   1.750   3.023
22152SOL     OW68462   6.544   1.694   2.749
22152SOL    HW168463   6.632   1.654   2.747
22152SOL    HW268464   6.499   1.645   2.677
22153SOL     OW68465   5.971   0.696   2.325
22153SOL    HW168466   5.993   0.601   2.337
22153SOL    HW268467   5.879   0.698   2.357
22154SOL     OW68468   7.121   0.243   3.579
22154SOL    HW168469   7.122   0.254   3.676
22154SOL    HW268470   7.061   0.167   3.573
22155SOL     OW68471   6.223   0.126   1.951
22155SOL    HW168472   6.259   0.042   1.983
22155SOL    HW268473   6.171   0.099   1.874
22156SOL     OW68474   6.355   0.282   3.614
22156SOL    HW168475   6.439   0.232   3.615
22156SOL    HW268476   6.306   0.242   3.687
22157SOL     OW68477   6.469   1.541   3.061
22157SOL    HW168478   6.486   1.519   2.968
22157SOL    HW268479   6.532   1.484   3.109
22158SOL     OW68480   6.913   0.587   3.289
22158SOL    HW168481   6.955   0.552   3.370
22158SOL    HW268482   6.960   0.671   3.275
22159SOL     OW68483   6.374   1.411   2.768
22159SOL    HW168484   6.467   1.400   2.740
22159SOL    HW268485   6.325   1.375   2.691
22160SOL     OW68486   6.528   0.535   2.773
22160SOL    HW168487   6.501   0.516   2.680
22160SOL    HW268488   6.553   0.446   2.802
22161SOL     OW68489   6.123   0.025   2.361
22161SOL    HW168490   6.038   0.020   2.406
22161SOL    HW268491   6.109   0.099   2.300
22162SOL     OW68492   7.029   1.180   1.888
22162SOL    HW168493   7.054   1.102   1.942
22162SOL    HW268494   6.942   1.205   1.923
22163SOL     OW68495   5.887   0.044   2.082
22163SOL    HW168496   5.948   0.116   2.060
22163SOL    HW268497   5.947  11.075   2.108
22164SOL     OW68498   6.513   0.260   2.347
22164SOL    HW168499   6.491   0.301   2.262
22164SOL    HW268500   6.610   0.259   2.343
22165SOL     OW68501   6.679   0.706   3.329
22165SOL    HW168502   6.612   0.637   3.334
22165SOL    HW268503   6.762   0.655   3.321
22166SOL     OW68504   6.809   1.594   2.658
22166SOL    HW168505   6.819   1.650   2.579
22166SOL    HW268506   6.893   1.607   2.702
22167SOL     OW68507   6.052   1.170   2.606
22167SOL    HW168508   5.976   1.141   2.661
22167SOL    HW268509   6.022   1.145   2.516
22168SOL     OW68510   6.839   1.813   2.463
22168SOL    HW168511   6.894   1.879   2.415
22168SOL    HW268512   6.802   1.867   2.534
22169SOL     OW68513   6.635   0.557   1.869
22169SOL    HW168514   6.587   0.639   1.846
22169SOL    HW268515   6.704   0.588   1.929
22170SOL     OW68516   5.645   0.565   3.254
22170SOL    HW168517   5.739   0.553   3.230
22170SOL    HW268518   5.652   0.635   3.322
22171SOL     OW68519   6.142   0.218   3.038
22171SOL    HW168520   6.182   0.166   3.108
22171SOL    HW268521   6.049   0.226   3.069
22172SOL     OW68522   6.461   0.453   2.530
22172SOL    HW168523   6.416   0.505   2.462
22172SOL    HW268524   6.481   0.370   2.482
22173SOL     OW68525   6.568   0.014   2.634
22173SOL    HW168526   6.517   0.037   2.555
22173SOL    HW268527   6.531  11.029   2.658
22174SOL     OW68528   7.004   1.170   2.741
22174SOL    HW168529   6.963   1.087   2.769
22174SOL    HW268530   7.000   1.161   2.644
22175SOL     OW68531   7.069   0.594   2.821
22175SOL    HW168532   7.002   0.525   2.834
22175SOL    HW268533   7.123   0.589   2.903
22176SOL     OW68534   7.431   0.809   2.243
22176SOL    HW168535   7.484   0.760   2.308
22176SOL    HW268536   7.413   0.739   2.176
22177SOL     OW68537   6.086   1.417   1.991
22177SOL    HW168538   6.003   1.409   2.041
22177SOL    HW268539   6.069   1.360   1.915
22178SOL     OW68540   7.264   1.289   2.515
22178SOL    HW168541   7.362   1.290   2.521
22178SOL    HW268542   7.238   1.377   2.546
22179SOL     OW68543   6.994   0.590   1.925
22179SOL    HW168544   6.949   0.569   2.009
22179SOL    HW268545   7.083   0.554   1.939
22180SOL     OW68546   6.096   0.240   2.173
22180SOL    HW168547   6.158   0.206   2.105
22180SOL    HW268548   6.077   0.330   2.136
22181SOL     OW68549   7.318   1.232   3.429
22181SOL    HW168550   7.409   1.199   3.417
22181SOL    HW268551   7.336   1.325   3.454
22182SOL     OW68552   6.651   1.378   3.207
22182SOL    HW168553   6.575   1.337   3.252
22182SOL    HW268554   6.726   1.326   3.244
22183SOL     OW68555   7.198   1.614   3.495
22183SOL    HW168556   7.196   1.642   3.402
22183SOL    HW268557   7.280   1.562   3.498
22184SOL     OW68558   6.702   1.233   2.965
22184SOL    HW168559   6.643   1.263   3.035
22184SOL    HW268560   6.667   1.276   2.885
22185SOL     OW68561   7.181   1.093   2.941
22185SOL    HW168562   7.190   1.160   3.012
22185SOL    HW268563   7.127   1.141   2.877
22186SOL     OW68564   6.474   0.104   3.258
22186SOL    HW168565   6.509   0.079   3.171
22186SOL    HW268566   6.555   0.129   3.305
22187SOL     OW68567   6.588   1.131   3.600
22187SOL    HW168568   6.496   1.153   3.623
22187SOL    HW268569   6.578   1.051   3.544
22188SOL     OW68570   6.290   1.064   2.210
22188SOL    HW168571   6.278   1.047   2.305
22188SOL    HW268572   6.371   1.012   2.190
22189SOL     OW68573   6.006   0.783   3.117
22189SOL    HW168574   6.075   0.787   3.187
22189SOL    HW268575   5.961   0.699   3.135
22190SOL     OW68576   6.874   0.384   3.117
22190SOL    HW168577   6.887   0.456   3.182
22190SOL    HW268578   6.780   0.396   3.092
22191SOL     OW68579   5.638   1.564   3.206
22191SOL    HW168580   5.586   1.636   3.170
22191SOL    HW268581   5.729   1.591   3.193
22192SOL     OW68582   5.958   1.110   2.365
22192SOL    HW168583   5.992   1.166   2.295
22192SOL    HW268584   5.922   1.035   2.313
22193SOL     OW68585   6.117   0.537   2.693
22193SOL    HW168586   6.149   0.598   2.623
22193SOL    HW268587   6.182   0.552   2.764
22194SOL     OW68588   6.814   1.334   2.253
22194SOL    HW168589   6.854   1.415   2.290
22194SOL    HW268590   6.723   1.340   2.286
22195SOL     OW68591   6.894   1.469   3.029
22195SOL    HW168592   6.954   1.467   3.107
22195SOL    HW268593   6.834   1.395   3.047
22196SOL     OW68594   7.167   0.622   2.324
22196SOL    HW168595   7.119   0.672   2.393
22196SOL    HW268596   7.201   0.691   2.266
22197SOL     OW68597   5.927   1.503   3.172
22197SOL    HW168598   5.919   1.469   3.081
22197SOL    HW268599   6.017   1.539   3.171
22198SOL     OW68600   6.023   0.720   3.489
22198SOL    HW168601   6.082   0.768   3.428
22198SOL    HW268602   6.050   0.628   3.474
22199SOL     OW68603   7.218   0.765   3.554
22199SOL    HW168604   7.130   0.806   3.556
22199SOL    HW268605   7.256   0.808   3.474
22200SOL     OW68606   6.590   0.143   3.626
22200SOL    HW168607   6.648   0.220   3.614
22200SOL    HW268608   6.647   0.072   3.590
22201SOL     OW68609   6.081   0.058   3.607
22201SOL    HW168610   6.019   0.005   3.554
22201SOL    HW268611   6.023   0.131   3.636
22202SOL     OW68612   6.167   0.910   2.902
22202SOL    HW168613   6.206   0.997   2.915
22202SOL    HW268614   6.123   0.890   2.986
22203SOL     OW68615   6.936   0.878   2.871
22203SOL    HW168616   6.855   0.832   2.844
22203SOL    HW268617   6.995   0.804   2.887
22204SOL     OW68618   6.816   0.521   2.128
22204SOL    HW168619   6.825   0.441   2.184
22204SOL    HW268620   6.752   0.573   2.179
22205SOL     OW68621   5.884   0.227   3.124
22205SOL    HW168622   5.844   0.262   3.207
22205SOL    HW268623   5.839   0.143   3.114
22206SOL     OW68624   5.636   1.294   3.156
22206SOL    HW168625   5.652   1.238   3.235
22206SOL    HW268626   5.630   1.384   3.192
22207SOL     OW68627   6.292   0.609   2.893
22207SOL    HW168628   6.381   0.592   2.855
22207SOL    HW268629   6.282   0.706   2.886
22208SOL     OW68630   7.361   0.961   3.703
22208SOL    HW168631   7.317   0.900   3.641
22208SOL    HW268632   7.293   0.968   3.772
22209SOL     OW68633   5.875   0.023   2.479
22209SOL    HW168634   5.860   0.119   2.485
22209SOL    HW268635   5.886   0.003   2.574
22210SOL     OW68636   7.182   0.394   2.187
22210SOL    HW168637   7.220   0.334   2.252
22210SOL    HW268638   7.164   0.474   2.243
22211SOL     OW68639   6.675   0.748   2.839
22211SOL    HW168640   6.647   0.769   2.930
22211SOL    HW268641   6.628   0.663   2.825
22212SOL     OW68642   6.566   1.564   3.569
22212SOL    HW168643   6.554   1.616   3.486
22212SOL    HW268644   6.605   1.481   3.537
22213SOL     OW68645   7.435   1.490   3.461
22213SOL    HW168646   7.462   1.512   3.370
22213SOL    HW268647   7.512   1.518   3.512
22214SOL     OW68648   5.947   0.904   3.661
22214SOL    HW168649   6.032   0.919   3.705
22214SOL    HW268650   5.969   0.829   3.601
22215SOL     OW68651   7.096   0.251   1.973
22215SOL    HW168652   7.019   0.202   2.008
22215SOL    HW268653   7.123   0.306   2.048
22216SOL     OW68654   6.865   0.823   1.876
22216SOL    HW168655   6.921   0.743   1.888
22216SOL    HW268656   6.896   0.854   1.789
22217SOL     OW68657   6.640   1.370   2.713
22217SOL    HW168658   6.652   1.293   2.653
22217SOL    HW268659   6.715   1.428   2.690
22218SOL     OW68660   5.875   0.834   2.861
22218SOL    HW168661   5.967   0.857   2.842
22218SOL    HW268662   5.883   0.740   2.886
22219SOL     OW68663   5.917   0.542   2.864
22219SOL    HW168664   5.878   0.455   2.845
22219SOL    HW268665   5.985   0.548   2.793
22220SOL     OW68666   6.743   0.377   3.550
22220SOL    HW168667   6.693   0.430   3.615
22220SOL    HW268668   6.829   0.422   3.552
22221SOL     OW68669   6.762   0.222   3.326
22221SOL    HW168670   6.756   0.288   3.398
22221SOL    HW268671   6.791   0.277   3.251
22222SOL     OW68672   5.592   1.325   2.064
22222SOL    HW168673   5.499   1.343   2.037
22222SOL    HW268674   5.586   1.232   2.093
22223SOL     OW68675   5.688   1.786   2.812
22223SOL    HW168676   5.662   1.716   2.749
22223SOL    HW268677   5.779   1.805   2.783
22224SOL     OW68678   6.558   0.772   3.095
22224SOL    HW168679   6.616   0.752   3.171
22224SOL    HW268680   6.473   0.740   3.128
22225SOL     OW68681   5.611   0.530   2.968
22225SOL    HW168682   5.686   0.510   2.910
22225SOL    HW268683   5.652   0.538   3.054
22226SOL     OW68684   5.796   0.520   3.583
22226SOL    HW168685   5.828   0.459   3.515
22226SOL    HW268686   5.766   0.597   3.531
22227SOL     OW68687   6.977   0.907   3.510
22227SOL    HW168688   6.998   1.002   3.511
22227SOL    HW268689   6.968   0.890   3.414
22228SOL     OW68690   6.398   0.577   2.234
22228SOL    HW168691   6.410   0.500   2.176
22228SOL    HW268692   6.319   0.621   2.198
22229SOL     OW68693   7.219   0.625   3.051
22229SOL    HW168694   7.191   0.561   3.118
22229SOL    HW268695   7.305   0.588   3.021
22230SOL     OW68696   5.836   1.536   3.575
22230SOL    HW168697   5.817   1.602   3.643
22230SOL    HW268698   5.845   1.455   3.628
22231SOL     OW68699   6.275   0.472   3.125
22231SOL    HW168700   6.228   0.392   3.098
22231SOL    HW268701   6.265   0.529   3.047
22232SOL     OW68702   6.508   1.699   3.344
22232SOL    HW168703   6.499   1.666   3.254
22232SOL    HW268704   6.508   1.795   3.332
22233SOL     OW68705   6.041   0.478   2.061
22233SOL    HW168706   6.097   0.556   2.075
22233SOL    HW268707   5.953   0.521   2.055
22234SOL     OW68708   5.724   1.112   3.337
22234SOL    HW168709   5.722   1.059   3.420
22234SOL    HW268710   5.735   1.044   3.268
22235SOL     OW68711   6.904   1.039   3.096
22235SOL    HW168712   6.925   0.990   3.014
22235SOL    HW268713   6.832   1.096   3.064
22236SOL     OW68714   6.894   0.843   2.150
22236SOL    HW168715   6.810   0.824   2.193
22236SOL    HW268716   6.870   0.844   2.056
22237SOL     OW68717   7.342   1.752   2.995
22237SOL    HW168718   7.417   1.775   2.937
22237SOL    HW268719   7.334   1.656   2.976
22238SOL     OW68720   6.831   1.727   2.971
22238SOL    HW168721   6.916   1.745   2.927
22238SOL    HW268722   6.839   1.631   2.991
22239SOL     OW68723   5.694   1.255   2.903
22239SOL    HW168724   5.663   1.266   2.996
22239SOL    HW268725   5.612   1.228   2.859
22240SOL     OW68726   6.284   1.638   3.605
22240SOL    HW168727   6.249   1.727   3.589
22240SOL    HW268728   6.378   1.647   3.586
22241SOL     OW68729   7.278   0.114   2.366
22241SOL    HW168730   7.353   0.135   2.309
22241SOL    HW268731   7.314   0.050   2.428
22242SOL     OW68732   6.941   1.575   2.346
22242SOL    HW168733   7.010   1.587   2.278
22242SOL    HW268734   6.909   1.665   2.361
22243SOL     OW68735   5.737   1.790   3.692
22243SOL    HW168736   5.686   1.724   3.742
22243SOL    HW268737   5.779   1.839   3.764
22244SOL     OW68738   6.846   0.925   2.540
22244SOL    HW168739   6.923   0.866   2.553
22244SOL    HW268740   6.886   0.996   2.486
22245SOL     OW68741   6.394   1.257   3.283
22245SOL    HW168742   6.367   1.306   3.363
22245SOL    HW268743   6.317   1.272   3.226
22246SOL     OW68744   6.255   1.618   2.011
22246SOL    HW168745   6.268   1.628   1.914
22246SOL    HW268746   6.196   1.539   2.011
22247SOL     OW68747   7.203   1.710   3.241
22247SOL    HW168748   7.253   1.729   3.160
22247SOL    HW268749   7.193   1.800   3.279
22248SOL     OW68750   7.461   0.131   2.808
22248SOL    HW168751   7.474   0.051   2.754
22248SOL    HW268752   7.375   0.165   2.774
22249SOL     OW68753   5.831   0.294   2.557
22249SOL    HW168754   5.749   0.343   2.538
22249SOL    HW268755   5.838   0.304   2.653
22250SOL     OW68756   6.774   1.630   1.882
22250SOL    HW168757   6.778   1.535   1.901
22250SOL    HW268758   6.720   1.635   1.801
22251SOL     OW68759   6.405   0.987   3.244
22251SOL    HW168760   6.440   0.982   3.155
22251SOL    HW268761   6.408   1.082   3.265
22252SOL     OW68762   6.504   0.924   2.150
22252SOL    HW168763   6.579   0.958   2.098
22252SOL    HW268764   6.537   0.840   2.184
22253SOL     OW68765   7.140   1.636   1.899
22253SOL    HW168766   7.044   1.644   1.897
22253SOL    HW268767   7.161   1.637   1.803
22254SOL     OW68768   5.938   1.275   3.350
22254SOL    HW168769   5.915   1.347   3.290
22254SOL    HW268770   5.860   1.216   3.345
22255SOL     OW68771   7.192   1.301   3.131
22255SOL    HW168772   7.235   1.276   3.215
22255SOL    HW268773   7.129   1.369   3.162
22256SOL     OW68774   6.639   1.132   2.577
22256SOL    HW168775   6.569   1.077   2.617
22256SOL    HW268776   6.701   1.065   2.546
22257SOL     OW68777   6.613   0.243   2.840
22257SOL    HW168778   6.597   0.201   2.754
22257SOL    HW268779   6.606   0.166   2.899
22258SOL     OW68780   6.200   1.478   2.362
22258SOL    HW168781   6.248   1.430   2.291
22258SOL    HW268782   6.132   1.524   2.312
22259SOL     OW68783   7.289   0.377   3.241
22259SOL    HW168784   7.347   0.454   3.236
22259SOL    HW268785   7.337   0.314   3.183
22260SOL     OW68786   5.840   1.384   2.141
22260SOL    HW168787   5.745   1.365   2.131
22260SOL    HW268788   5.846   1.403   2.236
22261SOL     OW68789   5.711   0.992   3.568
22261SOL    HW168790   5.638   0.980   3.632
22261SOL    HW268791   5.791   0.968   3.620
22262SOL     OW68792   6.251   0.229   3.344
22262SOL    HW168793   6.329   0.183   3.308
22262SOL    HW268794   6.283   0.255   3.432
22263SOL     OW68795   5.655   0.361   1.892
22263SOL    HW168796   5.564   0.371   1.861
22263SOL    HW268797   5.700   0.429   1.838
22264SOL     OW68798   7.029   0.850   3.248
22264SOL    HW168799   6.987   0.914   3.187
22264SOL    HW268800   7.123   0.869   3.234
22265SOL     OW68801   5.627   0.172   2.182
22265SOL    HW168802   5.628   0.240   2.113
22265SOL    HW268803   5.714   0.131   2.171
22266SOL     OW68804   6.790   1.350   1.976
22266SOL    HW168805   6.703   1.308   1.979
22266SOL    HW268806   6.816   1.351   2.070
22267SOL     OW68807   6.202   0.797   3.293
22267SOL    HW168808   6.255   0.878   3.290
22267SOL    HW268809   6.273   0.731   3.302
22268SOL     OW68810   7.086   1.754   2.824
22268SOL    HW168811   7.124   1.802   2.749
22268SOL    HW268812   7.162   1.745   2.883
22269SOL     OW68813   6.320   0.567   3.555
22269SOL    HW168814   6.362   0.633   3.614
22269SOL    HW268815   6.322   0.485   3.607
22270SOL     OW68816   7.046   1.183   3.485
22270SOL    HW168817   7.036   1.185   3.583
22270SOL    HW268818   7.140   1.208   3.475
22271SOL     OW68819   5.962   1.733   3.428
22271SOL    HW168820   5.877   1.780   3.418
22271SOL    HW268821   5.932   1.647   3.464
22272SOL     OW68822   7.283   0.902   3.111
22272SOL    HW168823   7.259   0.817   3.071
22272SOL    HW268824   7.249   0.966   3.046
22273SOL     OW68825   6.818   0.304   2.306
22273SOL    HW168826   6.866   0.219   2.310
22273SOL    HW268827   6.850   0.349   2.387
22274SOL     OW68828   6.173   0.756   2.510
22274SOL    HW168829   6.199   0.849   2.504
22274SOL    HW268830   6.103   0.748   2.443
22275SOL     OW68831   7.352   0.375   3.501
22275SOL    HW168832   7.319   0.380   3.409
22275SOL    HW268833   7.282   0.319   3.540
22276SOL     OW68834   7.336   0.928   3.372
22276SOL    HW168835   7.326   1.024   3.377
22276SOL    HW268836   7.340   0.914   3.275
22277SOL     OW68837   6.441   1.362   1.896
22277SOL    HW168838   6.413   1.384   1.986
22277SOL    HW268839   6.469   1.446   1.857
22278SOL     OW68840   6.226   1.794   2.763
22278SOL    HW168841   6.194   1.887   2.762
22278SOL    HW268842   6.321   1.807   2.768
22279SOL     OW68843   6.465   0.962   2.705
22279SOL    HW168844   6.508   0.886   2.746
22279SOL    HW268845   6.434   1.013   2.782
22280SOL     OW68846   6.691   1.005   1.966
22280SOL    HW168847   6.652   1.058   1.894
22280SOL    HW268848   6.738   0.937   1.916
22281SOL     OW68849   7.461   1.555   2.688
22281SOL    HW168850   7.367   1.557   2.667
22281SOL    HW268851   7.466   1.486   2.756
22282SOL     OW68852   5.826   1.314   3.734
22282SOL    HW168853   5.749   1.260   3.714
22282SOL    HW268854   5.814   1.330   3.829
22283SOL     OW68855   5.676   1.249   2.525
22283SOL    HW168856   5.672   1.192   2.603
22283SOL    HW268857   5.753   1.212   2.478
22284SOL     OW68858   6.261   1.400   3.472
22284SOL    HW168859   6.187   1.350   3.511
22284SOL    HW268860   6.255   1.484   3.520
22285SOL     OW68861   7.411   0.192   3.078
22285SOL    HW168862   7.382   0.098   3.076
22285SOL    HW268863   7.425   0.208   2.984
22286SOL     OW68864   6.002   0.417   2.371
22286SOL    HW168865   6.039   0.343   2.321
22286SOL    HW268866   5.963   0.375   2.449
22287SOL     OW68867   7.303   1.495   2.946
22287SOL    HW168868   7.220   1.467   2.906
22287SOL    HW268869   7.308   1.434   3.021
22288SOL     OW68870   5.902   0.537   3.152
22288SOL    HW168871   5.968   0.492   3.210
22288SOL    HW268872   5.932   0.517   3.062
22289SOL     OW68873   6.392   1.611   2.544
22289SOL    HW168874   6.397   1.679   2.474
22289SOL    HW268875   6.330   1.547   2.507
22290SOL     OW68876   7.025   0.240   2.955
22290SOL    HW168877   7.029   0.152   2.994
22290SOL    HW268878   6.979   0.293   3.025
22291SOL     OW68879   6.582   0.009   3.017
22291SOL    HW168880   6.534  11.026   3.006
22291SOL    HW268881   6.675  11.082   3.008
22292SOL     OW68882   6.369   1.340   2.181
22292SOL    HW168883   6.342   1.246   2.174
22292SOL    HW268884   6.439   1.336   2.247
22293SOL     OW68885   6.183   1.574   3.109
22293SOL    HW168886   6.181   1.658   3.160
22293SOL    HW268887   6.279   1.556   3.113
22294SOL     OW68888   6.900   0.066   2.040
22294SOL    HW168889   6.900  11.098   1.973
22294SOL    HW268890   6.810   0.058   2.077
22295SOL     OW68891   6.867   0.453   2.532
22295SOL    HW168892   6.817   0.536   2.527
22295SOL    HW268893   6.853   0.426   2.624
22296SOL     OW68894   7.216   0.216   2.737
22296SOL    HW168895   7.143   0.230   2.799
22296SOL    HW268896   7.211   0.298   2.684
22297SOL     OW68897   5.627   1.065   2.170
22297SOL    HW168898   5.720   1.057   2.141
22297SOL    HW268899   5.606   0.972   2.192
22298SOL     OW68900   6.461   1.641   2.189
22298SOL    HW168901   6.386   1.624   2.129
22298SOL    HW268902   6.437   1.722   2.237
22299SOL     OW68903   5.820   0.613   3.855
22299SOL    HW168904   5.727   0.616   3.879
22299SOL    HW268905   5.820   0.613   3.758
22300SOL     OW68906   5.795   0.299   4.719
22300SOL    HW168907   5.820   0.287   4.812
22300SOL    HW268908   5.729   0.229   4.707
22301SOL     OW68909   5.597   0.416   4.373
22301SOL    HW168910   5.512   0.436   4.417
22301SOL    HW268911   5.569   0.353   4.305
22302SOL     OW68912   6.162   1.294   4.923
22302SOL    HW168913   6.074   1.286   4.886
22302SOL    HW268914   6.168   1.390   4.941
22303SOL     OW68915   7.160   1.517   4.447
22303SOL    HW168916   7.113   1.498   4.530
22303SOL    HW268917   7.088   1.516   4.380
22304SOL     OW68918   6.713   0.690   4.428
22304SOL    HW168919   6.752   0.778   4.412
22304SOL    HW268920   6.685   0.698   4.520
22305SOL     OW68921   7.366   0.609   3.956
22305SOL    HW168922   7.341   0.598   3.863
22305SOL    HW268923   7.326   0.530   3.995
22306SOL     OW68924   6.322   1.168   4.751
22306SOL    HW168925   6.266   1.215   4.817
22306SOL    HW268926   6.363   1.245   4.707
22307SOL     OW68927   6.457   0.765   5.535
22307SOL    HW168928   6.453   0.846   5.588
22307SOL    HW268929   6.474   0.803   5.445
22308SOL     OW68930   6.278   1.025   4.378
22308SOL    HW168931   6.345   1.008   4.447
22308SOL    HW268932   6.209   1.073   4.427
22309SOL     OW68933   6.256   1.158   5.571
22309SOL    HW168934   6.337   1.195   5.530
22309SOL    HW268935   6.185   1.190   5.513
22310SOL     OW68936   5.904   1.428   4.788
22310SOL    HW168937   5.837   1.387   4.732
22310SOL    HW268938   5.959   1.481   4.726
22311SOL     OW68939   7.059   1.498   5.102
22311SOL    HW168940   7.111   1.581   5.111
22311SOL    HW268941   6.991   1.510   5.170
22312SOL     OW68942   6.038   0.415   5.198
22312SOL    HW168943   6.114   0.353   5.198
22312SOL    HW268944   5.962   0.357   5.213
22313SOL     OW68945   7.196   0.458   4.465
22313SOL    HW168946   7.136   0.478   4.393
22313SOL    HW268947   7.176   0.529   4.529
22314SOL     OW68948   5.809   1.719   4.195
22314SOL    HW168949   5.838   1.798   4.247
22314SOL    HW268950   5.872   1.718   4.122
22315SOL     OW68951   6.762   1.368   5.375
22315SOL    HW168952   6.796   1.366   5.466
22315SOL    HW268953   6.704   1.289   5.382
22316SOL     OW68954   5.839   1.447   4.261
22316SOL    HW168955   5.825   1.543   4.265
22316SOL    HW268956   5.771   1.413   4.321
22317SOL     OW68957   5.859   1.084   4.608
22317SOL    HW168958   5.865   1.009   4.669
22317SOL    HW268959   5.799   1.144   4.656
22318SOL     OW68960   6.187   1.794   5.131
22318SOL    HW168961   6.119   1.767   5.196
22318SOL    HW268962   6.213   1.882   5.164
22319SOL     OW68963   6.160   0.987   3.834
22319SOL    HW168964   6.211   1.039   3.769
22319SOL    HW268965   6.199   1.020   3.918
22320SOL     OW68966   7.190   0.106   5.207
22320SOL    HW168967   7.205   0.154   5.124
22320SOL    HW268968   7.149   0.174   5.262
22321SOL     OW68969   5.701   0.670   4.291
22321SOL    HW168970   5.678   0.583   4.328
22321SOL    HW268971   5.696   0.727   4.371
22322SOL     OW68972   7.448   1.743   4.068
22322SOL    HW168973   7.423   1.738   4.161
22322SOL    HW268974   7.474   1.836   4.058
22323SOL     OW68975   5.634   1.586   3.845
22323SOL    HW168976   5.606   1.496   3.868
22323SOL    HW268977   5.609   1.636   3.925
22324SOL     OW68978   7.283   0.919   4.344
22324SOL    HW168979   7.357   0.890   4.290
22324SOL    HW268980   7.239   0.983   4.285
22325SOL     OW68981   7.229   1.122   4.171
22325SOL    HW168982   7.320   1.120   4.136
22325SOL    HW268983   7.236   1.190   4.241
22326SOL     OW68984   5.719   0.750   5.304
22326SOL    HW168985   5.810   0.783   5.311
22326SOL    HW268986   5.667   0.825   5.335
22327SOL     OW68987   6.175   1.414   4.479
22327SOL    HW168988   6.140   1.323   4.489
22327SOL    HW268989   6.158   1.429   4.384
22328SOL     OW68990   6.881   1.238   5.143
22328SOL    HW168991   6.911   1.158   5.098
22328SOL    HW268992   6.921   1.227   5.232
22329SOL     OW68993   6.414  11.101   4.251
22329SOL    HW168994   6.449   0.087   4.225
22329SOL    HW268995   6.320   0.008   4.230
22330SOL     OW68996   5.764   0.977   5.003
22330SOL    HW168997   5.853   0.940   4.990
22330SOL    HW268998   5.709   0.928   4.941
22331SOL     OW68999   7.139   0.947   3.901
22331SOL    HW169000   7.059   0.897   3.925
22331SOL    HW269001   7.161   0.990   3.984
22332SOL     OW69002   6.769   1.813   5.334
22332SOL    HW169003   6.772   1.874   5.259
22332SOL    HW269004   6.784   1.727   5.289
22333SOL     OW69005   5.911   0.259   5.537
22333SOL    HW169006   5.955   0.340   5.567
22333SOL    HW269007   5.819   0.276   5.564
22334SOL     OW69008   7.055   1.427   4.694
22334SOL    HW169009   6.988   1.445   4.764
22334SOL    HW269010   7.025   1.340   4.661
22335SOL     OW69011   7.248   1.727   4.305
22335SOL    HW169012   7.195   1.695   4.229
22335SOL    HW269013   7.224   1.661   4.373
22336SOL     OW69014   6.176   0.712   3.994
22336SOL    HW169015   6.178   0.798   3.950
22336SOL    HW269016   6.105   0.724   4.059
22337SOL     OW69017   6.852   0.382   4.660
22337SOL    HW169018   6.767   0.336   4.671
22337SOL    HW269019   6.913   0.325   4.710
22338SOL     OW69020   7.179   1.651   4.015
22338SOL    HW169021   7.273   1.666   4.010
22338SOL    HW269022   7.155   1.636   3.922
22339SOL     OW69023   6.405   0.603   5.174
22339SOL    HW169024   6.373   0.582   5.265
22339SOL    HW269025   6.348   0.545   5.119
22340SOL     OW69026   6.975   0.485   5.398
22340SOL    HW169027   6.976   0.534   5.483
22340SOL    HW269028   7.043   0.417   5.411
22341SOL     OW69029   6.512   0.850   5.301
22341SOL    HW169030   6.582   0.800   5.255
22341SOL    HW269031   6.501   0.927   5.243
22342SOL     OW69032   6.588   0.391   4.965
22342SOL    HW169033   6.530   0.446   5.019
22342SOL    HW269034   6.530   0.363   4.893
22343SOL     OW69035   6.640   0.695   4.150
22343SOL    HW169036   6.653   0.702   4.246
22343SOL    HW269037   6.553   0.650   4.145
22344SOL     OW69038   5.703   0.830   4.499
22344SOL    HW169039   5.768   0.829   4.572
22344SOL    HW269040   5.650   0.909   4.521
22345SOL     OW69041   5.695   1.851   5.300
22345SOL    HW169042   5.692   1.809   5.387
22345SOL    HW269043   5.608   1.831   5.263
22346SOL     OW69044   6.468   0.346   3.952
22346SOL    HW169045   6.511   0.401   3.885
22346SOL    HW269046   6.443   0.268   3.900
22347SOL     OW69047   7.300   0.567   5.560
22347SOL    HW169048   7.260   0.648   5.520
22347SOL    HW269049   7.322   0.516   5.480
22348SOL     OW69050   6.950   1.149   4.285
22348SOL    HW169051   7.029   1.145   4.229
22348SOL    HW269052   6.901   1.221   4.241
22349SOL     OW69053   6.128   0.201   4.607
22349SOL    HW169054   6.151   0.215   4.701
22349SOL    HW269055   6.135   0.289   4.569
22350SOL     OW69056   6.556   1.444   4.208
22350SOL    HW169057   6.528   1.511   4.143
22350SOL    HW269058   6.613   1.495   4.267
22351SOL     OW69059   5.930   1.814   4.579
22351SOL    HW169060   5.979   1.731   4.593
22351SOL    HW269061   5.997   1.881   4.599
22352SOL     OW69062   7.401   1.055   4.571
22352SOL    HW169063   7.343   1.034   4.496
22352SOL    HW269064   7.341   1.043   4.646
22353SOL     OW69065   6.804   1.571   5.209
22353SOL    HW169066   6.795   1.501   5.277
22353SOL    HW269067   6.762   1.529   5.133
22354SOL     OW69068   5.888   0.954   3.978
22354SOL    HW169069   5.964   0.974   3.922
22354SOL    HW269070   5.867   0.862   3.956
22355SOL     OW69071   7.065   0.752   4.438
22355SOL    HW169072   7.059   0.710   4.526
22355SOL    HW269073   7.141   0.812   4.447
22356SOL     OW69074   6.044   1.265   5.437
22356SOL    HW169075   6.000   1.273   5.350
22356SOL    HW269076   5.969   1.279   5.497
22357SOL     OW69077   6.671   1.783   3.956
22357SOL    HW169078   6.618   1.724   4.012
22357SOL    HW269079   6.697   1.725   3.883
22358SOL     OW69080   5.774   0.315   5.235
22358SOL    HW169081   5.686   0.348   5.259
22358SOL    HW269082   5.773   0.228   5.277
22359SOL     OW69083   7.215   1.355   3.815
22359SOL    HW169084   7.175   1.441   3.796
22359SOL    HW269085   7.149   1.292   3.783
22360SOL     OW69086   6.043   1.739   4.035
22360SOL    HW169087   6.088   1.785   4.110
22360SOL    HW269088   6.118   1.712   3.979
22361SOL     OW69089   6.980   0.085   4.180
22361SOL    HW169090   6.982   0.070   4.084
22361SOL    HW269091   7.073   0.099   4.204
22362SOL     OW69092   5.835   1.795   4.948
22362SOL    HW169093   5.891   1.728   4.990
22362SOL    HW269094   5.824   1.761   4.859
22363SOL     OW69095   6.546   1.694   4.616
22363SOL    HW169096   6.635   1.659   4.602
22363SOL    HW269097   6.496   1.646   4.548
22364SOL     OW69098   5.948   0.693   4.164
22364SOL    HW169099   5.971   0.599   4.179
22364SOL    HW269100   5.859   0.697   4.203
22365SOL     OW69101   7.125   0.243   5.441
22365SOL    HW169102   7.125   0.253   5.539
22365SOL    HW269103   7.069   0.165   5.434
22366SOL     OW69104   6.227   0.125   3.818
22366SOL    HW169105   6.255   0.038   3.850
22366SOL    HW269106   6.172   0.102   3.741
22367SOL     OW69107   6.353   0.289   5.488
22367SOL    HW169108   6.435   0.237   5.484
22367SOL    HW269109   6.306   0.248   5.562
22368SOL     OW69110   6.464   1.543   4.923
22368SOL    HW169111   6.469   1.520   4.829
22368SOL    HW269112   6.523   1.480   4.966
22369SOL     OW69113   6.914   0.579   5.153
22369SOL    HW169114   6.948   0.548   5.239
22369SOL    HW269115   6.963   0.662   5.139
22370SOL     OW69116   6.400   1.407   4.652
22370SOL    HW169117   6.487   1.395   4.608
22370SOL    HW269118   6.339   1.413   4.577
22371SOL     OW69119   6.534   0.525   4.633
22371SOL    HW169120   6.503   0.502   4.543
22371SOL    HW269121   6.565   0.438   4.663
22372SOL     OW69122   6.129   0.031   4.228
22372SOL    HW169123   6.042   0.026   4.270
22372SOL    HW269124   6.117   0.104   4.165
22373SOL     OW69125   7.024   1.170   3.746
22373SOL    HW169126   7.043   1.098   3.809
22373SOL    HW269127   6.944   1.211   3.784
22374SOL     OW69128   5.885   0.046   3.942
22374SOL    HW169129   5.939   0.124   3.923
22374SOL    HW269130   5.950  11.080   3.965
22375SOL     OW69131   6.524   0.248   4.213
22375SOL    HW169132   6.504   0.290   4.127
22375SOL    HW269133   6.621   0.252   4.214
22376SOL     OW69134   6.685   0.706   5.169
22376SOL    HW169135   6.619   0.637   5.189
22376SOL    HW269136   6.769   0.655   5.170
22377SOL     OW69137   6.801   1.598   4.538
22377SOL    HW169138   6.804   1.612   4.441
22377SOL    HW269139   6.892   1.615   4.561
22378SOL     OW69140   6.066   1.166   4.463
22378SOL    HW169141   5.993   1.131   4.518
22378SOL    HW269142   6.029   1.152   4.373
22379SOL     OW69143   6.801   1.832   4.328
22379SOL    HW169144   6.857   1.767   4.282
22379SOL    HW269145   6.863   1.900   4.354
22380SOL     OW69146   6.634   0.546   3.729
22380SOL    HW169147   6.582   0.626   3.709
22380SOL    HW269148   6.702   0.580   3.788
22381SOL     OW69149   5.645   0.576   5.113
22381SOL    HW169150   5.740   0.561   5.096
22381SOL    HW269151   5.649   0.646   5.181
22382SOL     OW69152   6.137   0.221   4.900
22382SOL    HW169153   6.183   0.170   4.968
22382SOL    HW269154   6.044   0.218   4.931
22383SOL     OW69155   6.456   0.444   4.389
22383SOL    HW169156   6.417   0.500   4.320
22383SOL    HW269157   6.477   0.362   4.340
22384SOL     OW69158   6.569   0.019   4.500
22384SOL    HW169159   6.515   0.047   4.425
22384SOL    HW269160   6.542  11.028   4.511
22385SOL     OW69161   7.002   1.182   4.606
22385SOL    HW169162   6.928   1.121   4.619
22385SOL    HW269163   7.010   1.183   4.509
22386SOL     OW69164   7.077   0.602   4.678
22386SOL    HW169165   7.010   0.533   4.691
22386SOL    HW269166   7.129   0.598   4.761
22387SOL     OW69167   7.449   0.811   4.103
22387SOL    HW169168   7.496   0.758   4.171
22387SOL    HW269169   7.419   0.741   4.042
22388SOL     OW69170   6.079   1.417   3.865
22388SOL    HW169171   5.995   1.405   3.915
22388SOL    HW269172   6.063   1.367   3.784
22389SOL     OW69173   7.269   1.281   4.384
22389SOL    HW169174   7.367   1.290   4.385
22389SOL    HW269175   7.238   1.371   4.406
22390SOL     OW69176   6.979   0.603   3.789
22390SOL    HW169177   6.931   0.575   3.870
22390SOL    HW269178   7.065   0.560   3.803
22391SOL     OW69179   6.099   0.241   4.036
22391SOL    HW169180   6.155   0.207   3.964
22391SOL    HW269181   6.076   0.330   4.001
22392SOL     OW69182   7.315   1.227   5.297
22392SOL    HW169183   7.406   1.193   5.294
22392SOL    HW269184   7.332   1.321   5.315
22393SOL     OW69185   6.654   1.368   5.063
22393SOL    HW169186   6.573   1.332   5.105
22393SOL    HW269187   6.725   1.319   5.110
22394SOL     OW69188   7.198   1.620   5.362
22394SOL    HW169189   7.196   1.656   5.272
22394SOL    HW269190   7.279   1.565   5.360
22395SOL     OW69191   6.709   1.226   4.821
22395SOL    HW169192   6.652   1.263   4.890
22395SOL    HW269193   6.677   1.269   4.740
22396SOL     OW69194   7.192   1.089   4.779
22396SOL    HW169195   7.198   1.152   4.853
22396SOL    HW269196   7.127   1.133   4.721
22397SOL     OW69197   6.492   0.101   5.126
22397SOL    HW169198   6.517   0.076   5.035
22397SOL    HW269199   6.575   0.135   5.160
22398SOL     OW69200   6.295   1.060   4.062
22398SOL    HW169201   6.280   1.043   4.156
22398SOL    HW269202   6.373   1.003   4.042
22399SOL     OW69203   6.013   0.820   4.990
22399SOL    HW169204   6.085   0.812   5.056
22399SOL    HW269205   5.966   0.735   5.001
22400SOL     OW69206   6.867   0.386   4.980
22400SOL    HW169207   6.881   0.460   5.043
22400SOL    HW269208   6.774   0.399   4.953
22401SOL     OW69209   5.668   1.565   5.071
22401SOL    HW169210   5.660   1.648   5.021
22401SOL    HW269211   5.762   1.542   5.060
22402SOL     OW69212   5.951   1.120   4.220
22402SOL    HW169213   5.949   1.185   4.149
22402SOL    HW269214   5.921   1.040   4.176
22403SOL     OW69215   6.112   0.558   4.555
22403SOL    HW169216   6.144   0.621   4.487
22403SOL    HW269217   6.181   0.564   4.624
22404SOL     OW69218   6.800   1.319   4.101
22404SOL    HW169219   6.845   1.395   4.145
22404SOL    HW269220   6.710   1.329   4.136
22405SOL     OW69221   6.885   1.466   4.899
22405SOL    HW169222   6.941   1.467   4.979
22405SOL    HW269223   6.820   1.398   4.921
22406SOL     OW69224   7.177   0.620   4.190
22406SOL    HW169225   7.121   0.660   4.259
22406SOL    HW269226   7.193   0.696   4.132
22407SOL     OW69227   5.926   1.498   5.034
22407SOL    HW169228   5.916   1.466   4.941
22407SOL    HW269229   6.020   1.525   5.032
22408SOL     OW69230   6.021   0.720   5.342
22408SOL    HW169231   6.087   0.771   5.291
22408SOL    HW269232   6.053   0.630   5.328
22409SOL     OW69233   7.211   0.772   5.412
22409SOL    HW169234   7.123   0.813   5.412
22409SOL    HW269235   7.251   0.813   5.333
22410SOL     OW69236   6.588   0.150   5.492
22410SOL    HW169237   6.641   0.226   5.463
22410SOL    HW269238   6.640   0.076   5.455
22411SOL     OW69239   6.073   0.057   5.468
22411SOL    HW169240   6.011  11.100   5.424
22411SOL    HW269241   6.016   0.134   5.490
22412SOL     OW69242   6.159   0.911   4.754
22412SOL    HW169243   6.199   0.999   4.755
22412SOL    HW269244   6.125   0.899   4.844
22413SOL     OW69245   6.938   0.872   4.751
22413SOL    HW169246   6.857   0.837   4.712
22413SOL    HW269247   6.991   0.792   4.760
22414SOL     OW69248   6.821   0.524   3.993
22414SOL    HW169249   6.830   0.444   4.048
22414SOL    HW269250   6.757   0.575   4.045
22415SOL     OW69251   5.878   0.215   4.989
22415SOL    HW169252   5.842   0.255   5.071
22415SOL    HW269253   5.829   0.132   4.984
22416SOL     OW69254   5.625   1.303   4.996
22416SOL    HW169255   5.634   1.244   5.073
22416SOL    HW269256   5.635   1.392   5.034
22417SOL     OW69257   6.291   0.600   4.747
22417SOL    HW169258   6.383   0.585   4.718
22417SOL    HW269259   6.284   0.697   4.749
22418SOL     OW69260   7.365   0.966   5.563
22418SOL    HW169261   7.319   0.909   5.499
22418SOL    HW269262   7.299   0.971   5.634
22419SOL     OW69263   5.880   0.025   4.339
22419SOL    HW169264   5.859   0.120   4.344
22419SOL    HW269265   5.898   0.008   4.434
22420SOL     OW69266   7.188   0.379   4.061
22420SOL    HW169267   7.197   0.309   4.126
22420SOL    HW269268   7.179   0.459   4.117
22421SOL     OW69269   6.671   0.748   4.695
22421SOL    HW169270   6.637   0.770   4.784
22421SOL    HW269271   6.629   0.661   4.683
22422SOL     OW69272   6.570   1.557   5.423
22422SOL    HW169273   6.560   1.614   5.344
22422SOL    HW269274   6.601   1.474   5.385
22423SOL     OW69275   7.433   1.489   5.328
22423SOL    HW169276   7.456   1.512   5.236
22423SOL    HW269277   7.512   1.519   5.376
22424SOL     OW69278   5.944   0.909   5.518
22424SOL    HW169279   6.023   0.930   5.569
22424SOL    HW269280   5.971   0.827   5.471
22425SOL     OW69281   7.080   0.261   3.836
22425SOL    HW169282   7.010   0.203   3.873
22425SOL    HW269283   7.120   0.302   3.915
22426SOL     OW69284   6.849   0.831   3.732
22426SOL    HW169285   6.900   0.749   3.749
22426SOL    HW269286   6.892   0.861   3.649
22427SOL     OW69287   6.653   1.365   4.570
22427SOL    HW169288   6.667   1.293   4.506
22427SOL    HW269289   6.722   1.430   4.551
22428SOL     OW69290   5.879   0.825   4.714
22428SOL    HW169291   5.974   0.843   4.703
22428SOL    HW269292   5.880   0.729   4.735
22429SOL     OW69293   5.913   0.546   4.725
22429SOL    HW169294   5.878   0.457   4.705
22429SOL    HW269295   5.983   0.553   4.657
22430SOL     OW69296   6.729   0.384   5.405
22430SOL    HW169297   6.684   0.437   5.474
22430SOL    HW269298   6.818   0.424   5.408
22431SOL     OW69299   6.755   0.224   5.189
22431SOL    HW169300   6.743   0.293   5.257
22431SOL    HW269301   6.783   0.277   5.112
22432SOL     OW69302   5.591   1.319   3.927
22432SOL    HW169303   5.498   1.333   3.898
22432SOL    HW269304   5.589   1.225   3.955
22433SOL     OW69305   5.678   1.784   4.666
22433SOL    HW169306   5.650   1.712   4.605
22433SOL    HW269307   5.770   1.799   4.634
22434SOL     OW69308   6.079   1.589   4.660
22434SOL    HW169309   6.146   1.659   4.671
22434SOL    HW269310   6.125   1.527   4.600
22435SOL     OW69311   6.546   0.764   4.941
22435SOL    HW169312   6.603   0.741   5.017
22435SOL    HW269313   6.475   0.813   4.985
22436SOL     OW69314   5.620   0.525   4.836
22436SOL    HW169315   5.696   0.513   4.779
22436SOL    HW269316   5.660   0.547   4.922
22437SOL     OW69317   5.796   0.522   5.441
22437SOL    HW169318   5.826   0.462   5.372
22437SOL    HW269319   5.767   0.600   5.391
22438SOL     OW69320   6.978   0.911   5.388
22438SOL    HW169321   6.994   1.007   5.383
22438SOL    HW269322   6.945   0.892   5.298
22439SOL     OW69323   6.401   0.583   4.104
22439SOL    HW169324   6.405   0.503   4.050
22439SOL    HW269325   6.320   0.627   4.071
22440SOL     OW69326   7.222   0.619   4.912
22440SOL    HW169327   7.195   0.558   4.982
22440SOL    HW269328   7.312   0.588   4.888
22441SOL     OW69329   5.830   1.541   5.435
22441SOL    HW169330   5.853   1.604   5.504
22441SOL    HW269331   5.842   1.455   5.481
22442SOL     OW69332   6.274   0.463   4.986
22442SOL    HW169333   6.219   0.388   4.962
22442SOL    HW269334   6.267   0.521   4.908
22443SOL     OW69335   6.514   1.698   5.189
22443SOL    HW169336   6.500   1.662   5.100
22443SOL    HW269337   6.503   1.793   5.177
22444SOL     OW69338   6.040   0.476   3.920
22444SOL    HW169339   6.099   0.553   3.927
22444SOL    HW269340   5.953   0.521   3.911
22445SOL     OW69341   5.690   1.135   5.200
22445SOL    HW169342   5.708   1.080   5.280
22445SOL    HW269343   5.716   1.073   5.128
22446SOL     OW69344   6.905   1.034   4.967
22446SOL    HW169345   6.926   0.984   4.885
22446SOL    HW269346   6.840   1.098   4.932
22447SOL     OW69347   6.896   0.844   4.008
22447SOL    HW169348   6.813   0.830   4.056
22447SOL    HW269349   6.867   0.850   3.915
22448SOL     OW69350   7.351   1.741   4.860
22448SOL    HW169351   7.421   1.759   4.795
22448SOL    HW269352   7.335   1.645   4.843
22449SOL     OW69353   6.828   1.724   4.851
22449SOL    HW169354   6.912   1.747   4.809
22449SOL    HW269355   6.837   1.626   4.860
22450SOL     OW69356   5.687   1.235   4.749
22450SOL    HW169357   5.658   1.256   4.841
22450SOL    HW269358   5.604   1.213   4.706
22451SOL     OW69359   6.280   1.644   5.454
22451SOL    HW169360   6.242   1.732   5.445
22451SOL    HW269361   6.367   1.651   5.412
22452SOL     OW69362   7.285   0.109   4.220
22452SOL    HW169363   7.363   0.127   4.163
22452SOL    HW269364   7.320   0.052   4.289
22453SOL     OW69365   5.704   1.783   5.591
22453SOL    HW169366   5.640   1.855   5.593
22453SOL    HW269367   5.780   1.825   5.635
22454SOL     OW69368   6.848   0.915   4.397
22454SOL    HW169369   6.929   0.861   4.410
22454SOL    HW269370   6.884   0.991   4.348
22455SOL     OW69371   6.399   1.270   5.132
22455SOL    HW169372   6.376   1.311   5.218
22455SOL    HW269373   6.316   1.282   5.083
22456SOL     OW69374   6.250   1.618   3.878
22456SOL    HW169375   6.265   1.621   3.782
22456SOL    HW269376   6.194   1.537   3.886
22457SOL     OW69377   7.209   1.720   5.113
22457SOL    HW169378   7.255   1.731   5.028
22457SOL    HW269379   7.202   1.812   5.144
22458SOL     OW69380   7.452   0.127   4.671
22458SOL    HW169381   7.469   0.046   4.620
22458SOL    HW269382   7.368   0.158   4.633
22459SOL     OW69383   5.829   0.292   4.419
22459SOL    HW169384   5.748   0.344   4.404
22459SOL    HW269385   5.840   0.301   4.515
22460SOL     OW69386   6.777   1.626   3.754
22460SOL    HW169387   6.787   1.533   3.781
22460SOL    HW269388   6.717   1.621   3.677
22461SOL     OW69389   6.408   0.998   5.087
22461SOL    HW169390   6.449   1.033   5.007
22461SOL    HW269391   6.401   1.079   5.140
22462SOL     OW69392   6.498   0.907   4.001
22462SOL    HW169393   6.571   0.944   3.947
22462SOL    HW269394   6.538   0.829   4.042
22463SOL     OW69395   7.133   1.610   3.753
22463SOL    HW169396   7.040   1.632   3.756
22463SOL    HW269397   7.155   1.620   3.658
22464SOL     OW69398   5.914   1.291   5.209
22464SOL    HW169399   5.911   1.359   5.140
22464SOL    HW269400   5.833   1.239   5.194
22465SOL     OW69401   7.192   1.301   4.993
22465SOL    HW169402   7.232   1.272   5.076
22465SOL    HW269403   7.128   1.368   5.026
22466SOL     OW69404   6.644   1.122   4.443
22466SOL    HW169405   6.568   1.073   4.477
22466SOL    HW269406   6.701   1.050   4.411
22467SOL     OW69407   6.621   0.251   4.694
22467SOL    HW169408   6.613   0.192   4.617
22467SOL    HW269409   6.607   0.189   4.767
22468SOL     OW69410   6.195   1.479   4.213
22468SOL    HW169411   6.246   1.438   4.142
22468SOL    HW269412   6.124   1.524   4.166
22469SOL     OW69413   7.298   0.375   5.109
22469SOL    HW169414   7.352   0.455   5.101
22469SOL    HW269415   7.343   0.316   5.045
22470SOL     OW69416   5.838   1.388   4.002
22470SOL    HW169417   5.742   1.372   3.993
22470SOL    HW269418   5.844   1.416   4.096
22471SOL     OW69419   5.711   1.018   5.444
22471SOL    HW169420   5.639   0.992   5.506
22471SOL    HW269421   5.791   0.978   5.484
22472SOL     OW69422   6.255   0.229   5.210
22472SOL    HW169423   6.334   0.182   5.176
22472SOL    HW269424   6.286   0.259   5.297
22473SOL     OW69425   5.653   0.354   3.761
22473SOL    HW169426   5.562   0.367   3.734
22473SOL    HW269427   5.698   0.421   3.707
22474SOL     OW69428   7.036   0.845   5.112
22474SOL    HW169429   6.990   0.916   5.063
22474SOL    HW269430   7.129   0.865   5.095
22475SOL     OW69431   5.619   0.178   4.042
22475SOL    HW169432   5.617   0.242   3.970
22475SOL    HW269433   5.706   0.136   4.030
22476SOL     OW69434   6.792   1.355   3.833
22476SOL    HW169435   6.703   1.319   3.835
22476SOL    HW269436   6.815   1.355   3.929
22477SOL     OW69437   6.213   0.796   5.160
22477SOL    HW169438   6.265   0.878   5.159
22477SOL    HW269439   6.285   0.731   5.167
22478SOL     OW69440   7.087   1.760   4.698
22478SOL    HW169441   7.123   1.799   4.618
22478SOL    HW269442   7.165   1.754   4.755
22479SOL     OW69443   6.308   0.565   5.428
22479SOL    HW169444   6.357   0.629   5.484
22479SOL    HW269445   6.325   0.479   5.470
22480SOL     OW69446   7.048   1.182   5.354
22480SOL    HW169447   7.042   1.184   5.452
22480SOL    HW269448   7.141   1.206   5.339
22481SOL     OW69449   5.965   1.739   5.291
22481SOL    HW169450   5.877   1.778   5.278
22481SOL    HW269451   5.944   1.645   5.307
22482SOL     OW69452   7.276   0.901   4.962
22482SOL    HW169453   7.261   0.812   4.925
22482SOL    HW269454   7.242   0.959   4.892
22483SOL     OW69455   6.817   0.308   4.174
22483SOL    HW169456   6.868   0.225   4.180
22483SOL    HW269457   6.845   0.356   4.255
22484SOL     OW69458   6.170   0.752   4.363
22484SOL    HW169459   6.209   0.841   4.358
22484SOL    HW269460   6.091   0.760   4.308
22485SOL     OW69461   7.354   0.379   5.370
22485SOL    HW169462   7.334   0.382   5.275
22485SOL    HW269463   7.283   0.320   5.401
22486SOL     OW69464   7.331   0.921   5.226
22486SOL    HW169465   7.322   1.017   5.236
22486SOL    HW269466   7.333   0.912   5.128
22487SOL     OW69467   6.447   1.361   3.758
22487SOL    HW169468   6.417   1.378   3.850
22487SOL    HW269469   6.476   1.448   3.727
22488SOL     OW69470   6.231   1.820   4.650
22488SOL    HW169471   6.231   1.915   4.632
22488SOL    HW269472   6.325   1.797   4.639
22489SOL     OW69473   6.464   0.959   4.573
22489SOL    HW169474   6.511   0.885   4.613
22489SOL    HW269475   6.444   1.016   4.649
22490SOL     OW69476   6.676   1.004   3.826
22490SOL    HW169477   6.654   1.065   3.754
22490SOL    HW269478   6.730   0.938   3.779
22491SOL     OW69479   7.445   1.555   4.554
22491SOL    HW169480   7.354   1.552   4.520
22491SOL    HW269481   7.443   1.489   4.625
22492SOL     OW69482   5.812   1.311   5.580
22492SOL    HW169483   5.756   1.237   5.550
22492SOL    HW269484   5.813   1.299   5.676
22493SOL     OW69485   5.678   1.246   4.380
22493SOL    HW169486   5.668   1.181   4.450
22493SOL    HW269487   5.759   1.217   4.337
22494SOL     OW69488   6.262   1.399   5.338
22494SOL    HW169489   6.184   1.350   5.369
22494SOL    HW269490   6.268   1.470   5.405
22495SOL     OW69491   7.418   0.196   4.938
22495SOL    HW169492   7.402   0.103   4.956
22495SOL    HW269493   7.423   0.195   4.841
22496SOL     OW69494   5.991   0.427   4.234
22496SOL    HW169495   6.036   0.355   4.189
22496SOL    HW269496   5.954   0.384   4.313
22497SOL     OW69497   7.290   1.488   4.816
22497SOL    HW169498   7.205   1.473   4.771
22497SOL    HW269499   7.283   1.422   4.888
22498SOL     OW69500   5.905   0.561   5.002
22498SOL    HW169501   5.972   0.516   5.056
22498SOL    HW269502   5.929   0.537   4.911
22499SOL     OW69503   6.402   1.594   4.408
22499SOL    HW169504   6.419   1.601   4.313
22499SOL    HW269505   6.322   1.540   4.411
22500SOL     OW69506   7.014   0.241   4.815
22500SOL    HW169507   7.032   0.157   4.860
22500SOL    HW269508   6.965   0.292   4.885
22501SOL     OW69509   6.582   0.014   4.885
22501SOL    HW169510   6.538  11.030   4.873
22501SOL    HW269511   6.677  11.090   4.878
22502SOL     OW69512   6.366   1.340   4.035
22502SOL    HW169513   6.342   1.246   4.036
22502SOL    HW269514   6.433   1.346   4.106
22503SOL     OW69515   6.188   1.562   4.988
22503SOL    HW169516   6.193   1.646   5.038
22503SOL    HW269517   6.281   1.552   4.964
22504SOL     OW69518   6.912   0.061   3.904
22504SOL    HW169519   6.914  11.089   3.841
22504SOL    HW269520   6.821   0.054   3.939
22505SOL     OW69521   6.871   0.460   4.393
22505SOL    HW169522   6.816   0.540   4.385
22505SOL    HW269523   6.857   0.435   4.486
22506SOL     OW69524   7.212   0.215   4.591
22506SOL    HW169525   7.139   0.221   4.654
22506SOL    HW269526   7.205   0.302   4.547
22507SOL     OW69527   5.631   1.061   4.026
22507SOL    HW169528   5.724   1.051   4.000
22507SOL    HW269529   5.607   0.969   4.048
22508SOL     OW69530   6.458   1.640   4.054
22508SOL    HW169531   6.382   1.631   3.994
22508SOL    HW269532   6.436   1.721   4.105
22509SOL     OW69533   5.816   0.641   5.716
22509SOL    HW169534   5.727   0.618   5.745
22509SOL    HW269535   5.817   0.614   5.623
22510SOL     OW69536   5.800   0.295   6.574
22510SOL    HW169537   5.822   0.280   6.668
22510SOL    HW269538   5.731   0.228   6.558
22511SOL     OW69539   5.589   0.395   6.214
22511SOL    HW169540   5.511   0.412   6.271
22511SOL    HW269541   5.547   0.376   6.128
22512SOL     OW69542   6.160   1.292   6.787
22512SOL    HW169543   6.069   1.288   6.756
22512SOL    HW269544   6.167   1.386   6.814
22513SOL     OW69545   7.111   1.535   6.291
22513SOL    HW169546   7.077   1.512   6.380
22513SOL    HW269547   7.034   1.534   6.231
22514SOL     OW69548   6.708   0.708   6.348
22514SOL    HW169549   6.758   0.782   6.307
22514SOL    HW269550   6.617   0.729   6.323
22515SOL     OW69551   7.369   0.607   5.814
22515SOL    HW169552   7.343   0.599   5.720
22515SOL    HW269553   7.337   0.523   5.848
22516SOL     OW69554   6.314   1.162   6.605
22516SOL    HW169555   6.255   1.203   6.672
22516SOL    HW269556   6.360   1.241   6.573
22517SOL     OW69557   6.473   0.765   7.383
22517SOL    HW169558   6.394   0.815   7.408
22517SOL    HW269559   6.504   0.816   7.305
22518SOL     OW69560   6.266   1.013   6.229
22518SOL    HW169561   6.337   1.012   6.295
22518SOL    HW269562   6.198   1.067   6.273
22519SOL     OW69563   6.301   1.160   7.385
22519SOL    HW169564   6.338   1.245   7.416
22519SOL    HW269565   6.214   1.188   7.352
22520SOL     OW69566   5.903   1.434   6.670
22520SOL    HW169567   5.835   1.381   6.626
22520SOL    HW269568   5.951   1.479   6.598
22521SOL     OW69569   7.056   1.493   6.961
22521SOL    HW169570   7.108   1.574   6.975
22521SOL    HW269571   6.989   1.499   7.030
22522SOL     OW69572   6.020   0.402   7.098
22522SOL    HW169573   6.092   0.338   7.084
22522SOL    HW269574   5.940   0.348   7.091
22523SOL     OW69575   7.185   0.459   6.324
22523SOL    HW169576   7.125   0.469   6.248
22523SOL    HW269577   7.193   0.551   6.353
22524SOL     OW69578   5.809   1.710   6.054
22524SOL    HW169579   5.836   1.786   6.109
22524SOL    HW269580   5.882   1.708   5.989
22525SOL     OW69581   6.705   1.337   7.231
22525SOL    HW169582   6.748   1.352   7.316
22525SOL    HW269583   6.665   1.250   7.247
22526SOL     OW69584   5.835   1.433   6.118
22526SOL    HW169585   5.830   1.530   6.127
22526SOL    HW269586   5.765   1.402   6.178
22527SOL     OW69587   5.860   1.095   6.490
22527SOL    HW169588   5.858   1.018   6.549
22527SOL    HW269589   5.803   1.158   6.539
22528SOL     OW69590   6.188   1.794   7.001
22528SOL    HW169591   6.112   1.767   7.055
22528SOL    HW269592   6.207   1.884   7.033
22529SOL     OW69593   6.145   0.976   5.717
22529SOL    HW169594   6.191   1.035   5.652
22529SOL    HW269595   6.194   1.004   5.796
22530SOL     OW69596   7.193   0.080   7.056
22530SOL    HW169597   7.206   0.145   6.985
22530SOL    HW269598   7.161   0.138   7.128
22531SOL     OW69599   5.706   0.663   6.156
22531SOL    HW169600   5.684   0.571   6.179
22531SOL    HW269601   5.699   0.710   6.241
22532SOL     OW69602   7.431   1.736   5.935
22532SOL    HW169603   7.505   1.723   5.998
22532SOL    HW269604   7.447   1.826   5.903
22533SOL     OW69605   7.261   0.915   6.224
22533SOL    HW169606   7.346   0.881   6.192
22533SOL    HW269607   7.237   0.976   6.152
22534SOL     OW69608   7.233   1.116   6.037
22534SOL    HW169609   7.321   1.117   5.997
22534SOL    HW269610   7.239   1.187   6.104
22535SOL     OW69611   5.699   0.723   7.169
22535SOL    HW169612   5.783   0.771   7.174
22535SOL    HW269613   5.636   0.795   7.185
22536SOL     OW69614   6.194   1.404   6.353
22536SOL    HW169615   6.152   1.316   6.365
22536SOL    HW269616   6.185   1.414   6.256
22537SOL     OW69617   6.881   1.234   7.007
22537SOL    HW169618   6.909   1.161   6.949
22537SOL    HW269619   6.934   1.218   7.088
22538SOL     OW69620   6.411   0.012   6.116
22538SOL    HW169621   6.442   0.102   6.092
22538SOL    HW269622   6.318   0.012   6.088
22539SOL     OW69623   5.781   0.969   6.849
22539SOL    HW169624   5.866   0.928   6.827
22539SOL    HW269625   5.716   0.911   6.808
22540SOL     OW69626   7.134   0.959   5.758
22540SOL    HW169627   7.054   0.912   5.786
22540SOL    HW269628   7.165   0.997   5.842
22541SOL     OW69629   6.770   1.798   7.204
22541SOL    HW169630   6.768   1.861   7.131
22541SOL    HW269631   6.786   1.714   7.158
22542SOL     OW69632   5.897   0.257   7.398
22542SOL    HW169633   5.932   0.343   7.425
22542SOL    HW269634   5.803   0.264   7.423
22543SOL     OW69635   7.054   1.434   6.552
22543SOL    HW169636   6.990   1.450   6.624
22543SOL    HW269637   7.029   1.344   6.522
22544SOL     OW69638   7.262   1.729   6.200
22544SOL    HW169639   7.258   1.698   6.109
22544SOL    HW269640   7.211   1.659   6.246
22545SOL     OW69641   6.186   0.705   5.853
22545SOL    HW169642   6.190   0.778   5.789
22545SOL    HW269643   6.111   0.729   5.909
22546SOL     OW69644   6.842   0.385   6.532
22546SOL    HW169645   6.765   0.325   6.534
22546SOL    HW269646   6.911   0.329   6.572
22547SOL     OW69647   7.167   1.643   5.897
22547SOL    HW169648   7.260   1.669   5.905
22547SOL    HW269649   7.159   1.634   5.801
22548SOL     OW69650   6.406   0.611   7.040
22548SOL    HW169651   6.371   0.587   7.129
22548SOL    HW269652   6.357   0.548   6.983
22549SOL     OW69653   6.981   0.476   7.271
22549SOL    HW169654   6.980   0.527   7.355
22549SOL    HW269655   7.054   0.414   7.285
22550SOL     OW69656   6.550   0.913   7.170
22550SOL    HW169657   6.607   0.842   7.133
22550SOL    HW269658   6.500   0.937   7.090
22551SOL     OW69659   6.592   0.424   6.766
22551SOL    HW169660   6.523   0.426   6.833
22551SOL    HW269661   6.577   0.337   6.725
22552SOL     OW69662   6.631   0.678   6.008
22552SOL    HW169663   6.642   0.701   6.101
22552SOL    HW269664   6.541   0.637   6.006
22553SOL     OW69665   5.699   0.837   6.370
22553SOL    HW169666   5.770   0.829   6.437
22553SOL    HW269667   5.659   0.922   6.394
22554SOL     OW69668   5.697   1.842   7.153
22554SOL    HW169669   5.718   1.830   7.248
22554SOL    HW269670   5.625   1.778   7.143
22555SOL     OW69671   6.466   0.353   5.804
22555SOL    HW169672   6.506   0.406   5.734
22555SOL    HW269673   6.445   0.272   5.757
22556SOL     OW69674   7.297   0.556   7.426
22556SOL    HW169675   7.264   0.638   7.386
22556SOL    HW269676   7.328   0.508   7.347
22557SOL     OW69677   6.947   1.142   6.151
22557SOL    HW169678   7.026   1.136   6.096
22557SOL    HW269679   6.898   1.211   6.102
22558SOL     OW69680   6.127   0.193   6.475
22558SOL    HW169681   6.145   0.207   6.570
22558SOL    HW269682   6.127   0.282   6.437
22559SOL     OW69683   6.583   1.443   6.074
22559SOL    HW169684   6.537   1.496   6.007
22559SOL    HW269685   6.583   1.501   6.151
22560SOL     OW69686   5.930   1.812   6.429
22560SOL    HW169687   5.973   1.726   6.448
22560SOL    HW269688   5.997   1.875   6.458
22561SOL     OW69689   7.389   1.043   6.460
22561SOL    HW169690   7.338   1.018   6.381
22561SOL    HW269691   7.322   1.039   6.529
22562SOL     OW69692   6.808   1.560   7.085
22562SOL    HW169693   6.782   1.488   7.145
22562SOL    HW269694   6.763   1.534   7.003
22563SOL     OW69695   5.887   0.956   5.834
22563SOL    HW169696   5.975   0.965   5.794
22563SOL    HW269697   5.858   0.871   5.798
22564SOL     OW69698   7.075   0.740   6.309
22564SOL    HW169699   7.070   0.720   6.404
22564SOL    HW269700   7.144   0.809   6.304
22565SOL     OW69701   6.058   1.253   7.306
22565SOL    HW169702   6.015   1.250   7.217
22565SOL    HW269703   5.981   1.265   7.364
22566SOL     OW69704   6.675   1.770   5.828
22566SOL    HW169705   6.606   1.717   5.871
22566SOL    HW269706   6.689   1.723   5.744
22567SOL     OW69707   5.756   0.304   7.083
22567SOL    HW169708   5.681   0.353   7.121
22567SOL    HW269709   5.732   0.212   7.107
22568SOL     OW69710   7.205   1.367   5.681
22568SOL    HW169711   7.170   1.453   5.652
22568SOL    HW269712   7.139   1.303   5.647
22569SOL     OW69713   6.041   1.732   5.904
22569SOL    HW169714   6.091   1.787   5.968
22569SOL    HW269715   6.111   1.705   5.842
22570SOL     OW69716   6.976   0.086   6.043
22570SOL    HW169717   6.973   0.072   5.947
22570SOL    HW269718   7.070   0.105   6.059
22571SOL     OW69719   5.845   1.790   6.805
22571SOL    HW169720   5.883   1.719   6.859
22571SOL    HW269721   5.797   1.741   6.738
22572SOL     OW69722   6.548   1.696   6.474
22572SOL    HW169723   6.630   1.646   6.475
22572SOL    HW269724   6.499   1.653   6.401
22573SOL     OW69725   5.954   0.692   6.044
22573SOL    HW169726   5.975   0.597   6.060
22573SOL    HW269727   5.861   0.695   6.070
22574SOL     OW69728   7.136   0.210   7.302
22574SOL    HW169729   7.137   0.231   7.398
22574SOL    HW269730   7.052   0.163   7.298
22575SOL     OW69731   6.218   0.130   5.681
22575SOL    HW169732   6.240   0.043   5.719
22575SOL    HW269733   6.167   0.104   5.602
22576SOL     OW69734   6.362   0.292   7.333
22576SOL    HW169735   6.435   0.228   7.332
22576SOL    HW269736   6.306   0.257   7.405
22577SOL     OW69737   6.466   1.543   6.777
22577SOL    HW169738   6.459   1.518   6.683
22577SOL    HW269739   6.523   1.474   6.813
22578SOL     OW69740   6.904   0.593   7.032
22578SOL    HW169741   6.948   0.558   7.112
22578SOL    HW269742   6.955   0.674   7.014
22579SOL     OW69743   6.411   1.408   6.527
22579SOL    HW169744   6.495   1.397   6.478
22579SOL    HW269745   6.346   1.419   6.456
22580SOL     OW69746   6.520   0.531   6.481
22580SOL    HW169747   6.498   0.518   6.385
22580SOL    HW269748   6.533   0.439   6.507
22581SOL     OW69749   6.120   0.022   6.081
22581SOL    HW169750   6.038   0.021   6.134
22581SOL    HW269751   6.105   0.098   6.024
22582SOL     OW69752   7.030   1.172   5.615
22582SOL    HW169753   7.055   1.096   5.672
22582SOL    HW269754   6.938   1.189   5.640
22583SOL     OW69755   5.884   0.042   5.805
22583SOL    HW169756   5.942   0.114   5.779
22583SOL    HW269757   5.946  11.077   5.837
22584SOL     OW69758   6.526   0.255   6.070
22584SOL    HW169759   6.499   0.295   5.985
22584SOL    HW269760   6.622   0.258   6.063
22585SOL     OW69761   6.665   0.713   7.041
22585SOL    HW169762   6.599   0.642   7.054
22585SOL    HW269763   6.749   0.665   7.048
22586SOL     OW69764   6.811   1.580   6.378
22586SOL    HW169765   6.809   1.638   6.300
22586SOL    HW269766   6.889   1.611   6.425
22587SOL     OW69767   6.061   1.163   6.324
22587SOL    HW169768   5.986   1.140   6.383
22587SOL    HW269769   6.022   1.143   6.236
22588SOL     OW69770   6.841   1.809   6.190
22588SOL    HW169771   6.897   1.870   6.137
22588SOL    HW269772   6.799   1.869   6.253
22589SOL     OW69773   6.633   0.556   5.589
22589SOL    HW169774   6.584   0.639   5.573
22589SOL    HW269775   6.705   0.585   5.646
22590SOL     OW69776   5.640   0.565   6.965
22590SOL    HW169777   5.737   0.557   6.955
22590SOL    HW269778   5.635   0.624   7.042
22591SOL     OW69779   6.143   0.221   6.763
22591SOL    HW169780   6.184   0.165   6.831
22591SOL    HW269781   6.052   0.229   6.797
22592SOL     OW69782   6.473   0.461   6.233
22592SOL    HW169783   6.419   0.504   6.165
22592SOL    HW269784   6.492   0.375   6.192
22593SOL     OW69785   6.585   0.011   6.372
22593SOL    HW169786   6.543   0.041   6.290
22593SOL    HW269787   6.556  11.020   6.376
22594SOL     OW69788   7.010   1.179   6.473
22594SOL    HW169789   6.932   1.123   6.476
22594SOL    HW269790   7.033   1.176   6.379
22595SOL     OW69791   7.024   0.621   6.587
22595SOL    HW169792   6.988   0.532   6.572
22595SOL    HW269793   7.098   0.604   6.649
22596SOL     OW69794   7.428   0.814   5.971
22596SOL    HW169795   7.485   0.770   6.037
22596SOL    HW269796   7.414   0.741   5.906
22597SOL     OW69797   6.075   1.435   5.706
22597SOL    HW169798   5.997   1.402   5.754
22597SOL    HW269799   6.113   1.355   5.667
22598SOL     OW69800   7.250   1.291   6.249
22598SOL    HW169801   7.347   1.298   6.252
22598SOL    HW269802   7.220   1.382   6.262
22599SOL     OW69803   6.990   0.590   5.649
22599SOL    HW169804   6.944   0.568   5.733
22599SOL    HW269805   7.079   0.556   5.666
22600SOL     OW69806   6.103   0.252   5.901
22600SOL    HW169807   6.158   0.218   5.829
22600SOL    HW269808   6.070   0.336   5.862
22601SOL     OW69809   7.328   1.234   7.161
22601SOL    HW169810   7.418   1.198   7.153
22601SOL    HW269811   7.346   1.328   7.174
22602SOL     OW69812   6.654   1.353   6.920
22602SOL    HW169813   6.582   1.321   6.975
22602SOL    HW269814   6.731   1.311   6.964
22603SOL     OW69815   7.199   1.610   7.230
22603SOL    HW169816   7.198   1.651   7.142
22603SOL    HW269817   7.281   1.557   7.225
22604SOL     OW69818   6.689   1.223   6.687
22604SOL    HW169819   6.652   1.270   6.764
22604SOL    HW269820   6.662   1.280   6.613
22605SOL     OW69821   7.182   1.087   6.656
22605SOL    HW169822   7.200   1.153   6.726
22605SOL    HW269823   7.120   1.137   6.598
22606SOL     OW69824   6.476   0.122   6.970
22606SOL    HW169825   6.507   0.077   6.889
22606SOL    HW269826   6.557   0.125   7.023
22607SOL     OW69827   6.586   1.117   7.341
22607SOL    HW169828   6.495   1.151   7.349
22607SOL    HW269829   6.577   1.046   7.274
22608SOL     OW69830   6.297   1.053   5.923
22608SOL    HW169831   6.278   1.034   6.016
22608SOL    HW269832   6.379   1.001   5.909
22609SOL     OW69833   6.013   0.786   6.829
22609SOL    HW169834   6.077   0.791   6.903
22609SOL    HW269835   5.966   0.702   6.849
22610SOL     OW69836   6.882   0.392   6.846
22610SOL    HW169837   6.893   0.465   6.911
22610SOL    HW269838   6.789   0.399   6.821
22611SOL     OW69839   5.654   1.567   6.904
22611SOL    HW169840   5.607   1.606   6.979
22611SOL    HW269841   5.736   1.538   6.947
22612SOL     OW69842   5.955   1.099   6.087
22612SOL    HW169843   5.993   1.157   6.021
22612SOL    HW269844   5.929   1.022   6.033
22613SOL     OW69845   6.116   0.551   6.423
22613SOL    HW169846   6.144   0.617   6.356
22613SOL    HW269847   6.183   0.559   6.492
22614SOL     OW69848   6.820   1.327   5.983
22614SOL    HW169849   6.862   1.408   6.016
22614SOL    HW269850   6.727   1.345   6.004
22615SOL     OW69851   6.881   1.469   6.758
22615SOL    HW169852   6.947   1.466   6.831
22615SOL    HW269853   6.817   1.402   6.785
22616SOL     OW69854   7.170   0.620   6.051
22616SOL    HW169855   7.125   0.683   6.109
22616SOL    HW269856   7.205   0.677   5.981
22617SOL     OW69857   5.932   1.485   6.930
22617SOL    HW169858   5.906   1.467   6.837
22617SOL    HW269859   6.024   1.513   6.916
22618SOL     OW69860   6.021   0.712   7.212
22618SOL    HW169861   6.081   0.761   7.153
22618SOL    HW269862   6.044   0.620   7.190
22619SOL     OW69863   7.214   0.767   7.272
22619SOL    HW169864   7.127   0.810   7.268
22619SOL    HW269865   7.261   0.813   7.199
22620SOL     OW69866   6.597   0.118   7.371
22620SOL    HW169867   6.655   0.192   7.352
22620SOL    HW269868   6.640   0.046   7.321
22621SOL     OW69869   6.062   0.064   7.332
22621SOL    HW169870   6.014   0.002   7.277
22621SOL    HW269871   5.995   0.135   7.348
22622SOL     OW69872   6.211   0.875   6.635
22622SOL    HW169873   6.213   0.972   6.631
22622SOL    HW269874   6.142   0.860   6.702
22623SOL     OW69875   6.920   0.879   6.607
22623SOL    HW169876   6.884   0.860   6.520
22623SOL    HW269877   6.972   0.799   6.624
22624SOL     OW69878   6.821   0.526   5.853
22624SOL    HW169879   6.828   0.449   5.912
22624SOL    HW269880   6.752   0.578   5.896
22625SOL     OW69881   5.892   0.229   6.849
22625SOL    HW169882   5.846   0.260   6.929
22625SOL    HW269883   5.849   0.143   6.835
22626SOL     OW69884   5.618   1.297   6.873
22626SOL    HW169885   5.641   1.246   6.952
22626SOL    HW269886   5.628   1.390   6.903
22627SOL     OW69887   6.300   0.612   6.620
22627SOL    HW169888   6.381   0.603   6.567
22627SOL    HW269889   6.279   0.707   6.618
22628SOL     OW69890   7.351   0.957   7.436
22628SOL    HW169891   7.302   0.897   7.377
22628SOL    HW269892   7.289   0.965   7.510
22629SOL     OW69893   5.873   0.024   6.197
22629SOL    HW169894   5.855   0.120   6.198
22629SOL    HW269895   5.883   0.008   6.293
22630SOL     OW69896   7.180   0.386   5.916
22630SOL    HW169897   7.213   0.317   5.975
22630SOL    HW269898   7.173   0.463   5.976
22631SOL     OW69899   6.571   1.562   7.293
22631SOL    HW169900   6.554   1.622   7.217
22631SOL    HW269901   6.585   1.477   7.249
22632SOL     OW69902   7.437   1.494   7.189
22632SOL    HW169903   7.450   1.514   7.095
22632SOL    HW269904   7.526   1.513   7.226
22633SOL     OW69905   5.948   0.887   7.397
22633SOL    HW169906   6.038   0.914   7.418
22633SOL    HW269907   5.964   0.810   7.338
22634SOL     OW69908   7.089   0.253   5.702
22634SOL    HW169909   7.017   0.200   5.740
22634SOL    HW269910   7.120   0.306   5.777
22635SOL     OW69911   6.874   0.828   5.613
22635SOL    HW169912   6.921   0.743   5.619
22635SOL    HW269913   6.900   0.859   5.524
22636SOL     OW69914   6.659   1.367   6.441
22636SOL    HW169915   6.680   1.289   6.386
22636SOL    HW269916   6.723   1.434   6.411
22637SOL     OW69917   5.882   0.819   6.571
22637SOL    HW169918   5.975   0.830   6.550
22637SOL    HW269919   5.879   0.727   6.600
22638SOL     OW69920   5.918   0.539   6.593
22638SOL    HW169921   5.878   0.454   6.570
22638SOL    HW269922   5.988   0.545   6.523
22639SOL     OW69923   6.728   0.383   7.254
22639SOL    HW169924   6.686   0.434   7.326
22639SOL    HW269925   6.819   0.418   7.257
22640SOL     OW69926   6.752   0.217   7.041
22640SOL    HW169927   6.737   0.279   7.115
22640SOL    HW269928   6.800   0.272   6.978
22641SOL     OW69929   5.573   1.331   5.790
22641SOL    HW169930   5.482   1.338   5.751
22641SOL    HW269931   5.576   1.236   5.814
22642SOL     OW69932   5.685   1.771   6.532
22642SOL    HW169933   5.656   1.711   6.461
22642SOL    HW269934   5.776   1.793   6.502
22643SOL     OW69935   6.065   1.581   6.509
22643SOL    HW169936   6.134   1.648   6.531
22643SOL    HW269937   6.116   1.517   6.455
22644SOL     OW69938   6.553   0.753   6.798
22644SOL    HW169939   6.598   0.739   6.884
22644SOL    HW269940   6.467   0.786   6.827
22645SOL     OW69941   5.603   0.526   6.688
22645SOL    HW169942   5.682   0.510   6.636
22645SOL    HW269943   5.639   0.537   6.777
22646SOL     OW69944   5.809   0.516   7.311
22646SOL    HW169945   5.859   0.466   7.244
22646SOL    HW269946   5.772   0.590   7.259
22647SOL     OW69947   6.976   0.908   7.243
22647SOL    HW169948   7.000   1.002   7.243
22647SOL    HW269949   6.967   0.890   7.148
22648SOL     OW69950   6.392   0.572   5.978
22648SOL    HW169951   6.402   0.500   5.915
22648SOL    HW269952   6.318   0.623   5.938
22649SOL     OW69953   7.224   0.611   6.768
22649SOL    HW169954   7.213   0.546   6.838
22649SOL    HW269955   7.310   0.583   6.730
22650SOL     OW69956   5.899   1.564   7.346
22650SOL    HW169957   5.832   1.623   7.385
22650SOL    HW269958   5.850   1.480   7.342
22651SOL     OW69959   6.283   0.472   6.855
22651SOL    HW169960   6.230   0.393   6.836
22651SOL    HW269961   6.273   0.524   6.773
22652SOL     OW69962   6.512   1.700   7.070
22652SOL    HW169963   6.495   1.652   6.988
22652SOL    HW269964   6.498   1.793   7.044
22653SOL     OW69965   6.030   0.483   5.786
22653SOL    HW169966   6.095   0.555   5.796
22653SOL    HW269967   5.948   0.535   5.774
22654SOL     OW69968   5.695   1.122   7.060
22654SOL    HW169969   5.704   1.068   7.142
22654SOL    HW269970   5.724   1.059   6.990
22655SOL     OW69971   6.895   1.040   6.827
22655SOL    HW169972   6.917   0.989   6.746
22655SOL    HW269973   6.823   1.096   6.794
22656SOL     OW69974   6.901   0.849   5.881
22656SOL    HW169975   6.814   0.831   5.920
22656SOL    HW269976   6.882   0.846   5.785
22657SOL     OW69977   7.348   1.750   6.721
22657SOL    HW169978   7.420   1.770   6.658
22657SOL    HW269979   7.332   1.655   6.701
22658SOL     OW69980   6.832   1.727   6.702
22658SOL    HW169981   6.920   1.748   6.667
22658SOL    HW269982   6.839   1.631   6.716
22659SOL     OW69983   5.691   1.256   6.620
22659SOL    HW169984   5.663   1.273   6.713
22659SOL    HW269985   5.610   1.220   6.582
22660SOL     OW69986   6.277   1.649   7.328
22660SOL    HW169987   6.215   1.721   7.313
22660SOL    HW269988   6.355   1.676   7.277
22661SOL     OW69989   7.276   0.118   6.089
22661SOL    HW169990   7.353   0.137   6.032
22661SOL    HW269991   7.312   0.053   6.151
22662SOL     OW69992   6.943   1.578   6.069
22662SOL    HW169993   7.000   1.597   5.992
22662SOL    HW269994   6.901   1.665   6.085
22663SOL     OW69995   5.747   1.805   7.412
22663SOL    HW169996   5.697   1.731   7.453
22663SOL    HW269997   5.786   1.846   7.491
22664SOL     OW69998   6.855   0.902   6.251
22664SOL    HW169999   6.939   0.852   6.253
22664SOL    HW270000   6.884   0.987   6.211
22665SOL     OW70001   6.375   1.242   7.021
22665SOL    HW170002   6.356   1.294   7.102
22665SOL    HW270003   6.302   1.269   6.964
22666SOL     OW70004   6.243   1.638   5.742
22666SOL    HW170005   6.281   1.633   5.652
22666SOL    HW270006   6.189   1.557   5.739
22667SOL     OW70007   7.211   1.721   6.982
22667SOL    HW170008   7.257   1.734   6.897
22667SOL    HW270009   7.198   1.813   7.012
22668SOL     OW70010   7.460   0.116   6.540
22668SOL    HW170011   7.483   0.042   6.482
22668SOL    HW270012   7.384   0.157   6.494
22669SOL     OW70013   5.832   0.296   6.281
22669SOL    HW170014   5.744   0.334   6.261
22669SOL    HW270015   5.831   0.292   6.378
22670SOL     OW70016   6.765   1.625   5.614
22670SOL    HW170017   6.776   1.531   5.638
22670SOL    HW270018   6.709   1.620   5.534
22671SOL     OW70019   6.413   0.990   6.950
22671SOL    HW170020   6.451   1.016   6.865
22671SOL    HW270021   6.396   1.077   6.991
22672SOL     OW70022   6.513   0.909   5.900
22672SOL    HW170023   6.578   0.939   5.833
22672SOL    HW270024   6.540   0.817   5.914
22673SOL     OW70025   7.140   1.625   5.622
22673SOL    HW170026   7.043   1.634   5.619
22673SOL    HW270027   7.163   1.630   5.526
22674SOL     OW70028   5.941   1.256   7.073
22674SOL    HW170029   5.935   1.338   7.021
22674SOL    HW270030   5.850   1.220   7.067
22675SOL     OW70031   7.192   1.300   6.845
22675SOL    HW170032   7.231   1.269   6.928
22675SOL    HW270033   7.131   1.369   6.879
22676SOL     OW70034   6.648   1.124   6.324
22676SOL    HW170035   6.577   1.067   6.357
22676SOL    HW270036   6.680   1.076   6.246
22677SOL     OW70037   6.625   0.222   6.563
22677SOL    HW170038   6.610   0.171   6.481
22677SOL    HW270039   6.612   0.151   6.629
22678SOL     OW70040   6.205   1.486   6.084
22678SOL    HW170041   6.257   1.444   6.014
22678SOL    HW270042   6.136   1.531   6.034
22679SOL     OW70043   7.302   0.374   6.973
22679SOL    HW170044   7.363   0.449   6.958
22679SOL    HW270045   7.341   0.306   6.914
22680SOL     OW70046   5.830   1.383   5.859
22680SOL    HW170047   5.745   1.335   5.859
22680SOL    HW270048   5.842   1.400   5.956
22681SOL     OW70049   5.714   0.990   7.285
22681SOL    HW170050   5.638   0.988   7.347
22681SOL    HW270051   5.790   0.969   7.342
22682SOL     OW70052   6.239   0.220   7.070
22682SOL    HW170053   6.318   0.180   7.029
22682SOL    HW270054   6.271   0.238   7.159
22683SOL     OW70055   5.663   0.353   5.613
22683SOL    HW170056   5.568   0.369   5.608
22683SOL    HW270057   5.696   0.422   5.553
22684SOL     OW70058   7.026   0.855   6.981
22684SOL    HW170059   6.987   0.924   6.923
22684SOL    HW270060   7.120   0.864   6.958
22685SOL     OW70061   5.609   0.150   5.893
22685SOL    HW170062   5.597   0.227   5.836
22685SOL    HW270063   5.703   0.128   5.883
22686SOL     OW70064   6.787   1.363   5.701
22686SOL    HW170065   6.718   1.296   5.686
22686SOL    HW270066   6.809   1.352   5.795
22687SOL     OW70067   6.206   0.797   7.014
22687SOL    HW170068   6.253   0.881   7.004
22687SOL    HW270069   6.279   0.734   7.027
22688SOL     OW70070   7.098   1.758   6.555
22688SOL    HW170071   7.124   1.809   6.477
22688SOL    HW270072   7.180   1.754   6.605
22689SOL     OW70073   6.308   0.568   7.283
22689SOL    HW170074   6.361   0.619   7.347
22689SOL    HW270075   6.317   0.476   7.314
22690SOL     OW70076   7.055   1.183   7.220
22690SOL    HW170077   7.049   1.189   7.317
22690SOL    HW270078   7.149   1.205   7.205
22691SOL     OW70079   5.964   1.730   7.144
22691SOL    HW170080   5.874   1.766   7.132
22691SOL    HW270081   5.946   1.654   7.203
22692SOL     OW70082   7.251   0.887   6.822
22692SOL    HW170083   7.246   0.799   6.780
22692SOL    HW270084   7.226   0.949   6.751
22693SOL     OW70085   6.815   0.312   6.048
22693SOL    HW170086   6.866   0.228   6.053
22693SOL    HW270087   6.846   0.360   6.127
22694SOL     OW70088   6.168   0.750   6.242
22694SOL    HW170089   6.194   0.843   6.226
22694SOL    HW270090   6.095   0.738   6.178
22695SOL     OW70091   7.353   0.378   7.230
22695SOL    HW170092   7.328   0.382   7.136
22695SOL    HW270093   7.286   0.316   7.266
22696SOL     OW70094   7.325   0.937   7.093
22696SOL    HW170095   7.329   1.034   7.095
22696SOL    HW270096   7.330   0.918   6.997
22697SOL     OW70097   6.388   1.429   5.609
22697SOL    HW170098   6.415   1.383   5.688
22697SOL    HW270099   6.471   1.456   5.567
22698SOL     OW70100   6.226   1.799   6.504
22698SOL    HW170101   6.212   1.895   6.497
22698SOL    HW270102   6.322   1.791   6.512
22699SOL     OW70103   6.456   0.965   6.439
22699SOL    HW170104   6.420   0.892   6.490
22699SOL    HW270105   6.427   1.041   6.492
22700SOL     OW70106   6.682   0.976   5.717
22700SOL    HW170107   6.646   1.033   5.645
22700SOL    HW270108   6.746   0.922   5.666
22701SOL     OW70109   7.457   1.557   6.425
22701SOL    HW170110   7.370   1.565   6.386
22701SOL    HW270111   7.444   1.497   6.499
22702SOL     OW70112   5.830   1.311   7.448
22702SOL    HW170113   5.752   1.301   7.391
22702SOL    HW270114   5.787   1.326   7.534
22703SOL     OW70115   5.673   1.248   6.244
22703SOL    HW170116   5.664   1.199   6.326
22703SOL    HW270117   5.749   1.206   6.203
22704SOL     OW70118   6.263   1.401   7.208
22704SOL    HW170119   6.186   1.348   7.234
22704SOL    HW270120   6.244   1.487   7.250
22705SOL     OW70121   7.400   0.185   6.806
22705SOL    HW170122   7.377   0.090   6.804
22705SOL    HW270123   7.423   0.200   6.713
22706SOL     OW70124   6.010   0.430   6.109
22706SOL    HW170125   6.048   0.360   6.053
22706SOL    HW270126   5.961   0.381   6.177
22707SOL     OW70127   7.302   1.492   6.673
22707SOL    HW170128   7.218   1.470   6.628
22707SOL    HW270129   7.301   1.426   6.744
22708SOL     OW70130   5.910   0.543   6.882
22708SOL    HW170131   5.969   0.494   6.941
22708SOL    HW270132   5.933   0.512   6.793
22709SOL     OW70133   6.416   1.592   6.259
22709SOL    HW170134   6.405   1.624   6.168
22709SOL    HW270135   6.331   1.548   6.275
22710SOL     OW70136   7.029   0.247   6.669
22710SOL    HW170137   7.045   0.160   6.706
22710SOL    HW270138   6.985   0.295   6.743
22711SOL     OW70139   6.586   0.004   6.745
22711SOL    HW170140   6.539  11.021   6.733
22711SOL    HW270141   6.679  11.078   6.733
22712SOL     OW70142   6.376   1.338   5.902
22712SOL    HW170143   6.348   1.246   5.888
22712SOL    HW270144   6.446   1.328   5.967
22713SOL     OW70145   6.182   1.561   6.857
22713SOL    HW170146   6.179   1.644   6.908
22713SOL    HW270147   6.276   1.560   6.831
22714SOL     OW70148   6.907   0.060   5.773
22714SOL    HW170149   6.909  11.091   5.707
22714SOL    HW270150   6.815   0.054   5.806
22715SOL     OW70151   6.875   0.459   6.268
22715SOL    HW170152   6.822   0.539   6.260
22715SOL    HW270153   6.863   0.434   6.361
22716SOL     OW70154   7.218   0.216   6.455
22716SOL    HW170155   7.146   0.223   6.519
22716SOL    HW270156   7.210   0.302   6.409
22717SOL     OW70157   5.631   1.068   5.885
22717SOL    HW170158   5.724   1.050   5.860
22717SOL    HW270159   5.601   0.979   5.908
22718SOL     OW70160   6.458   1.642   5.914
22718SOL    HW170161   6.383   1.630   5.853
22718SOL    HW270162   6.439   1.726   5.960
22719SOL     OW70163   5.825   0.624   7.582
22719SOL    HW170164   5.732   0.623   7.605
22719SOL    HW270165   5.826   0.610   7.486
22720SOL     OW70166   5.799   0.289   8.436
22720SOL    HW170167   5.827   0.274   8.527
22720SOL    HW270168   5.730   0.221   8.424
22721SOL     OW70169   5.591   0.408   8.098
22721SOL    HW170170   5.511   0.435   8.146
22721SOL    HW270171   5.557   0.336   8.043
22722SOL     OW70172   6.152   1.286   8.649
22722SOL    HW170173   6.066   1.281   8.605
22722SOL    HW270174   6.160   1.382   8.665
22723SOL     OW70175   7.118   1.540   8.158
22723SOL    HW170176   7.084   1.502   8.242
22723SOL    HW270177   7.045   1.526   8.094
22724SOL     OW70178   6.701   0.694   8.137
22724SOL    HW170179   6.751   0.778   8.131
22724SOL    HW270180   6.676   0.695   8.231
22725SOL     OW70181   7.377   0.605   7.677
22725SOL    HW170182   7.348   0.585   7.585
22725SOL    HW270183   7.317   0.550   7.728
22726SOL     OW70184   6.326   1.145   8.490
22726SOL    HW170185   6.264   1.196   8.546
22726SOL    HW270186   6.364   1.216   8.435
22727SOL     OW70187   6.457   0.773   9.256
22727SOL    HW170188   6.448   0.828   9.335
22727SOL    HW270189   6.491   0.835   9.189
22728SOL     OW70190   6.279   1.032   8.106
22728SOL    HW170191   6.344   1.005   8.174
22728SOL    HW270192   6.210   1.076   8.160
22729SOL     OW70193   6.286   1.158   9.260
22729SOL    HW170194   6.322   1.242   9.293
22729SOL    HW270195   6.197   1.185   9.229
22730SOL     OW70196   5.906   1.420   8.523
22730SOL    HW170197   5.839   1.372   8.471
22730SOL    HW270198   5.952   1.475   8.457
22731SOL     OW70199   7.060   1.497   8.828
22731SOL    HW170200   7.111   1.579   8.842
22731SOL    HW270201   6.992   1.504   8.897
22732SOL     OW70202   6.029   0.411   8.932
22732SOL    HW170203   6.105   0.350   8.925
22732SOL    HW270204   5.952   0.352   8.931
22733SOL     OW70205   5.812   1.725   7.925
22733SOL    HW170206   5.845   1.799   7.980
22733SOL    HW270207   5.875   1.726   7.851
22734SOL     OW70208   6.704   1.351   9.120
22734SOL    HW170209   6.759   1.346   9.200
22734SOL    HW270210   6.668   1.261   9.118
22735SOL     OW70211   5.838   1.450   7.993
22735SOL    HW170212   5.830   1.547   7.989
22735SOL    HW270213   5.758   1.425   8.042
22736SOL     OW70214   5.860   1.091   8.347
22736SOL    HW170215   5.862   1.013   8.404
22736SOL    HW270216   5.801   1.151   8.396
22737SOL     OW70217   6.206   1.775   8.906
22737SOL    HW170218   6.113   1.757   8.930
22737SOL    HW270219   6.207   1.874   8.902
22738SOL     OW70220   6.207   0.978   7.555
22738SOL    HW170221   6.237   1.045   7.490
22738SOL    HW270222   6.217   1.025   7.638
22739SOL     OW70223   7.190   0.106   8.935
22739SOL    HW170224   7.211   0.147   8.851
22739SOL    HW270225   7.158   0.182   8.986
22740SOL     OW70226   5.709   0.655   8.017
22740SOL    HW170227   5.675   0.567   8.040
22740SOL    HW270228   5.693   0.706   8.098
22741SOL     OW70229   7.446   1.738   7.770
22741SOL    HW170230   7.512   1.722   7.841
22741SOL    HW270231   7.460   1.833   7.754
22742SOL     OW70232   5.655   1.600   7.570
22742SOL    HW170233   5.636   1.505   7.575
22742SOL    HW270234   5.624   1.632   7.656
22743SOL     OW70235   7.277   0.951   8.119
22743SOL    HW170236   7.355   0.899   8.094
22743SOL    HW270237   7.234   0.967   8.034
22744SOL     OW70238   7.228   1.135   7.884
22744SOL    HW170239   7.320   1.118   7.860
22744SOL    HW270240   7.237   1.197   7.959
22745SOL     OW70241   5.709   0.751   9.032
22745SOL    HW170242   5.801   0.779   9.025
22745SOL    HW270243   5.661   0.835   9.033
22746SOL     OW70244   6.183   1.409   8.207
22746SOL    HW170245   6.139   1.322   8.219
22746SOL    HW270246   6.174   1.420   8.111
22747SOL     OW70247   6.878   1.242   8.860
22747SOL    HW170248   6.903   1.165   8.806
22747SOL    HW270249   6.934   1.229   8.939
22748SOL     OW70250   6.417   0.024   7.963
22748SOL    HW170251   6.433   0.118   7.944
22748SOL    HW270252   6.321   0.016   7.944
22749SOL     OW70253   5.767   0.980   8.724
22749SOL    HW170254   5.853   0.945   8.697
22749SOL    HW270255   5.704   0.933   8.667
22750SOL     OW70256   7.133   0.963   7.628
22750SOL    HW170257   7.057   0.908   7.654
22750SOL    HW270258   7.163   0.995   7.715
22751SOL     OW70259   6.758   1.800   9.054
22751SOL    HW170260   6.781   1.864   8.985
22751SOL    HW270261   6.790   1.716   9.016
22752SOL     OW70262   5.887   0.226   9.293
22752SOL    HW170263   5.952   0.298   9.297
22752SOL    HW270264   5.803   0.275   9.298
22753SOL     OW70265   7.060   1.434   8.410
22753SOL    HW170266   6.997   1.452   8.483
22753SOL    HW270267   7.033   1.344   8.383
22754SOL     OW70268   7.245   1.741   8.049
22754SOL    HW170269   7.225   1.698   7.965
22754SOL    HW270270   7.212   1.672   8.110
22755SOL     OW70271   6.183   0.715   7.716
22755SOL    HW170272   6.172   0.795   7.663
22755SOL    HW270273   6.108   0.720   7.778
22756SOL     OW70274   6.853   0.372   8.367
22756SOL    HW170275   6.764   0.345   8.393
22756SOL    HW270276   6.911   0.322   8.428
22757SOL     OW70277   7.163   1.645   7.756
22757SOL    HW170278   7.241   1.700   7.769
22757SOL    HW270279   7.151   1.651   7.659
22758SOL     OW70280   6.407   0.614   8.895
22758SOL    HW170281   6.380   0.600   8.989
22758SOL    HW270282   6.355   0.545   8.849
22759SOL     OW70283   6.985   0.496   9.109
22759SOL    HW170284   6.985   0.552   9.189
22759SOL    HW270285   7.046   0.425   9.134
22760SOL     OW70286   6.553   0.914   9.045
22760SOL    HW170287   6.617   0.844   9.019
22760SOL    HW270288   6.504   0.924   8.961
22761SOL     OW70289   6.577   0.388   8.692
22761SOL    HW170290   6.515   0.438   8.746
22761SOL    HW270291   6.528   0.369   8.612
22762SOL     OW70292   6.623   0.723   7.871
22762SOL    HW170293   6.651   0.713   7.965
22762SOL    HW270294   6.550   0.657   7.866
22763SOL     OW70295   5.698   0.831   8.227
22763SOL    HW170296   5.768   0.823   8.294
22763SOL    HW270297   5.657   0.917   8.250
22764SOL     OW70298   5.691   1.825   9.013
22764SOL    HW170299   5.691   1.802   9.107
22764SOL    HW270300   5.598   1.837   8.993
22765SOL     OW70301   6.470   0.350   7.676
22765SOL    HW170302   6.519   0.399   7.608
22765SOL    HW270303   6.438   0.275   7.625
22766SOL     OW70304   7.306   0.574   9.286
22766SOL    HW170305   7.266   0.655   9.248
22766SOL    HW270306   7.328   0.525   9.206
22767SOL     OW70307   6.949   1.158   8.002
22767SOL    HW170308   7.033   1.146   7.954
22767SOL    HW270309   6.901   1.218   7.942
22768SOL     OW70310   6.129   0.197   8.323
22768SOL    HW170311   6.146   0.212   8.417
22768SOL    HW270312   6.123   0.286   8.286
22769SOL     OW70313   6.574   1.449   7.918
22769SOL    HW170314   6.534   1.520   7.863
22769SOL    HW270315   6.590   1.494   8.002
22770SOL     OW70316   5.931   1.815   8.312
22770SOL    HW170317   5.975   1.728   8.308
22770SOL    HW270318   6.005   1.874   8.332
22771SOL     OW70319   7.410   1.062   8.320
22771SOL    HW170320   7.355   1.037   8.243
22771SOL    HW270321   7.351   1.039   8.393
22772SOL     OW70322   6.805   1.552   8.946
22772SOL    HW170323   6.780   1.486   9.014
22772SOL    HW270324   6.771   1.510   8.866
22773SOL     OW70325   5.887   0.955   7.698
22773SOL    HW170326   5.937   0.977   7.619
22773SOL    HW270327   5.853   0.867   7.677
22774SOL     OW70328   7.061   0.756   8.152
22774SOL    HW170329   7.078   0.666   8.186
22774SOL    HW270330   7.133   0.805   8.193
22775SOL     OW70331   6.046   1.266   9.179
22775SOL    HW170332   6.008   1.272   9.088
22775SOL    HW270333   5.965   1.280   9.232
22776SOL     OW70334   6.692   1.756   7.692
22776SOL    HW170335   6.610   1.716   7.728
22776SOL    HW270336   6.701   1.711   7.606
22777SOL     OW70337   5.767   0.303   8.945
22777SOL    HW170338   5.692   0.363   8.958
22777SOL    HW270339   5.739   0.222   8.991
22778SOL     OW70340   7.217   1.380   7.539
22778SOL    HW170341   7.159   1.454   7.519
22778SOL    HW270342   7.163   1.304   7.511
22779SOL     OW70343   6.047   1.732   7.769
22779SOL    HW170344   6.097   1.785   7.834
22779SOL    HW270345   6.115   1.705   7.705
22780SOL     OW70346   6.964   0.070   7.908
22780SOL    HW170347   6.960   0.073   7.811
22780SOL    HW270348   7.056   0.096   7.926
22781SOL     OW70349   5.829   1.789   8.671
22781SOL    HW170350   5.890   1.719   8.700
22781SOL    HW270351   5.813   1.766   8.578
22782SOL     OW70352   6.541   1.702   8.340
22782SOL    HW170353   6.622   1.650   8.352
22782SOL    HW270354   6.495   1.651   8.270
22783SOL     OW70355   5.972   0.672   7.909
22783SOL    HW170356   5.992   0.577   7.922
22783SOL    HW270357   5.880   0.677   7.943
22784SOL     OW70358   7.129   0.253   9.172
22784SOL    HW170359   7.129   0.256   9.271
22784SOL    HW270360   7.069   0.178   9.160
22785SOL     OW70361   6.226   0.157   7.532
22785SOL    HW170362   6.274   0.075   7.550
22785SOL    HW270363   6.169   0.131   7.457
22786SOL     OW70364   6.349   0.277   9.189
22786SOL    HW170365   6.432   0.224   9.193
22786SOL    HW270366   6.311   0.259   9.276
22787SOL     OW70367   6.459   1.526   8.642
22787SOL    HW170368   6.454   1.500   8.549
22787SOL    HW270369   6.528   1.469   8.677
22788SOL     OW70370   6.916   0.588   8.867
22788SOL    HW170371   6.954   0.554   8.951
22788SOL    HW270372   6.967   0.670   8.854
22789SOL     OW70373   6.401   1.394   8.377
22789SOL    HW170374   6.485   1.387   8.328
22789SOL    HW270375   6.335   1.396   8.305
22790SOL     OW70376   6.527   0.542   8.365
22790SOL    HW170377   6.498   0.516   8.274
22790SOL    HW270378   6.564   0.456   8.394
22791SOL     OW70379   6.135   0.042   7.949
22791SOL    HW170380   6.046   0.034   7.988
22791SOL    HW270381   6.120   0.113   7.884
22792SOL     OW70382   7.037   1.186   7.486
22792SOL    HW170383   7.054   1.106   7.540
22792SOL    HW270384   6.949   1.214   7.513
22793SOL     OW70385   5.884   0.037   7.663
22793SOL    HW170386   5.934   0.109   7.622
22793SOL    HW270387   5.953  11.078   7.693
22794SOL     OW70388   6.545   0.269   7.931
22794SOL    HW170389   6.510   0.302   7.846
22794SOL    HW270390   6.641   0.275   7.914
22795SOL     OW70391   6.685   0.720   8.917
22795SOL    HW170392   6.623   0.646   8.919
22795SOL    HW270393   6.771   0.674   8.907
22796SOL     OW70394   6.817   1.587   8.248
22796SOL    HW170395   6.815   1.634   8.163
22796SOL    HW270396   6.897   1.622   8.288
22797SOL     OW70397   6.058   1.169   8.189
22797SOL    HW170398   5.983   1.137   8.245
22797SOL    HW270399   6.023   1.149   8.100
22798SOL     OW70400   6.839   1.818   8.044
22798SOL    HW170401   6.888   1.894   8.008
22798SOL    HW270402   6.787   1.860   8.115
22799SOL     OW70403   6.645   0.562   7.448
22799SOL    HW170404   6.590   0.639   7.424
22799SOL    HW270405   6.715   0.600   7.503
22800SOL     OW70406   5.652   0.567   8.849
22800SOL    HW170407   5.745   0.556   8.822
22800SOL    HW270408   5.658   0.640   8.914
22801SOL     OW70409   6.142   0.216   8.623
22801SOL    HW170410   6.187   0.166   8.693
22801SOL    HW270411   6.050   0.218   8.655
22802SOL     OW70412   6.465   0.442   8.128
22802SOL    HW170413   6.427   0.499   8.060
22802SOL    HW270414   6.503   0.369   8.075
22803SOL     OW70415   7.010   1.178   8.333
22803SOL    HW170416   6.983   1.090   8.364
22803SOL    HW270417   7.002   1.168   8.237
22804SOL     OW70418   7.025   0.617   8.464
22804SOL    HW170419   7.004   0.537   8.413
22804SOL    HW270420   7.119   0.606   8.478
22805SOL     OW70421   7.416   0.802   7.846
22805SOL    HW170422   7.478   0.758   7.907
22805SOL    HW270423   7.406   0.733   7.777
22806SOL     OW70424   6.077   1.406   7.576
22806SOL    HW170425   5.999   1.399   7.634
22806SOL    HW270426   6.038   1.387   7.491
22807SOL     OW70427   7.263   1.306   8.093
22807SOL    HW170428   7.359   1.296   8.112
22807SOL    HW270429   7.241   1.391   8.133
22808SOL     OW70430   6.991   0.597   7.519
22808SOL    HW170431   6.951   0.561   7.601
22808SOL    HW270432   7.082   0.567   7.527
22809SOL     OW70433   6.099   0.242   7.760
22809SOL    HW170434   6.152   0.209   7.685
22809SOL    HW270435   6.070   0.329   7.724
22810SOL     OW70436   7.320   1.229   9.025
22810SOL    HW170437   7.412   1.197   9.022
22810SOL    HW270438   7.336   1.324   9.041
22811SOL     OW70439   6.654   1.380   8.787
22811SOL    HW170440   6.581   1.337   8.835
22811SOL    HW270441   6.731   1.327   8.816
22812SOL     OW70442   7.187   1.593   9.095
22812SOL    HW170443   7.199   1.641   9.010
22812SOL    HW270444   7.271   1.544   9.100
22813SOL     OW70445   6.711   1.235   8.548
22813SOL    HW170446   6.639   1.255   8.609
22813SOL    HW270447   6.675   1.263   8.463
22814SOL     OW70448   7.198   1.109   8.523
22814SOL    HW170449   7.198   1.171   8.598
22814SOL    HW270450   7.142   1.156   8.459
22815SOL     OW70451   6.481   0.112   8.843
22815SOL    HW170452   6.510   0.085   8.753
22815SOL    HW270453   6.567   0.139   8.881
22816SOL     OW70454   6.580   1.125   9.199
22816SOL    HW170455   6.486   1.138   9.217
22816SOL    HW270456   6.578   1.050   9.135
22817SOL     OW70457   6.342   1.032   7.817
22817SOL    HW170458   6.264   1.086   7.835
22817SOL    HW270459   6.353   0.993   7.905
22818SOL     OW70460   6.005   0.801   8.703
22818SOL    HW170461   6.077   0.797   8.769
22818SOL    HW270462   5.962   0.714   8.716
22819SOL     OW70463   6.862   0.363   8.726
22819SOL    HW170464   6.881   0.447   8.774
22819SOL    HW270465   6.770   0.376   8.697
22820SOL     OW70466   5.658   1.566   8.788
22820SOL    HW170467   5.652   1.655   8.750
22820SOL    HW270468   5.754   1.550   8.788
22821SOL     OW70469   5.952   1.114   7.945
22821SOL    HW170470   5.947   1.183   7.879
22821SOL    HW270471   5.918   1.037   7.897
22822SOL     OW70472   6.112   0.549   8.282
22822SOL    HW170473   6.150   0.607   8.213
22822SOL    HW270474   6.178   0.554   8.353
22823SOL     OW70475   6.805   1.331   7.832
22823SOL    HW170476   6.850   1.408   7.872
22823SOL    HW270477   6.714   1.346   7.862
22824SOL     OW70478   6.891   1.472   8.618
22824SOL    HW170479   6.952   1.464   8.694
22824SOL    HW270480   6.834   1.394   8.628
22825SOL     OW70481   7.163   0.617   7.902
22825SOL    HW170482   7.127   0.626   7.991
22825SOL    HW270483   7.194   0.706   7.883
22826SOL     OW70484   5.928   1.506   8.766
22826SOL    HW170485   5.915   1.471   8.675
22826SOL    HW270486   6.024   1.523   8.764
22827SOL     OW70487   6.015   0.723   9.067
22827SOL    HW170488   6.073   0.775   9.008
22827SOL    HW270489   6.056   0.636   9.059
22828SOL     OW70490   7.213   0.775   9.138
22828SOL    HW170491   7.122   0.809   9.137
22828SOL    HW270492   7.253   0.822   9.063
22829SOL     OW70493   6.581   0.134   9.212
22829SOL    HW170494   6.631   0.217   9.205
22829SOL    HW270495   6.645   0.071   9.176
22830SOL     OW70496   6.088   0.040   9.194
22830SOL    HW170497   6.042   0.024   9.111
22830SOL    HW270498   6.037   0.114   9.232
22831SOL     OW70499   6.163   0.896   8.484
22831SOL    HW170500   6.202   0.984   8.490
22831SOL    HW270501   6.118   0.884   8.569
22832SOL     OW70502   6.934   0.877   8.463
22832SOL    HW170503   6.852   0.840   8.427
22832SOL    HW270504   6.984   0.794   8.475
22833SOL     OW70505   6.822   0.513   7.722
22833SOL    HW170506   6.830   0.428   7.770
22833SOL    HW270507   6.775   0.566   7.787
22834SOL     OW70508   5.889   0.209   8.706
22834SOL    HW170509   5.846   0.249   8.784
22834SOL    HW270510   5.837   0.129   8.693
22835SOL     OW70511   5.615   1.299   8.736
22835SOL    HW170512   5.647   1.248   8.812
22835SOL    HW270513   5.630   1.392   8.762
22836SOL     OW70514   6.284   0.606   8.480
22836SOL    HW170515   6.375   0.594   8.447
22836SOL    HW270516   6.271   0.702   8.475
22837SOL     OW70517   7.349   0.964   9.306
22837SOL    HW170518   7.313   0.896   9.248
22837SOL    HW270519   7.283   0.965   9.377
22838SOL     OW70520   5.862   0.039   8.066
22838SOL    HW170521   5.855   0.135   8.079
22838SOL    HW270522   5.876   0.011   8.159
22839SOL     OW70523   7.163   0.378   7.787
22839SOL    HW170524   7.200   0.316   7.850
22839SOL    HW270525   7.158   0.461   7.841
22840SOL     OW70526   6.670   0.758   8.410
22840SOL    HW170527   6.647   0.777   8.503
22840SOL    HW270528   6.627   0.670   8.400
22841SOL     OW70529   6.561   1.568   9.149
22841SOL    HW170530   6.551   1.613   9.063
22841SOL    HW270531   6.595   1.480   9.124
22842SOL     OW70532   7.434   1.488   9.052
22842SOL    HW170533   7.459   1.516   8.962
22842SOL    HW270534   7.513   1.514   9.102
22843SOL     OW70535   5.924   0.883   9.257
22843SOL    HW170536   6.010   0.909   9.295
22843SOL    HW270537   5.952   0.815   9.192
22844SOL     OW70538   7.075   0.258   7.552
22844SOL    HW170539   7.007   0.199   7.589
22844SOL    HW270540   7.111   0.301   7.632
22845SOL     OW70541   6.850   0.824   7.466
22845SOL    HW170542   6.904   0.744   7.487
22845SOL    HW270543   6.889   0.850   7.380
22846SOL     OW70544   6.656   1.367   8.297
22846SOL    HW170545   6.678   1.292   8.239
22846SOL    HW270546   6.726   1.433   8.281
22847SOL     OW70547   5.888   0.825   8.436
22847SOL    HW170548   5.983   0.842   8.427
22847SOL    HW270549   5.887   0.733   8.466
22848SOL     OW70550   5.910   0.537   8.452
22848SOL    HW170551   5.874   0.448   8.433
22848SOL    HW270552   5.978   0.545   8.381
22849SOL     OW70553   6.743   0.373   9.119
22849SOL    HW170554   6.694   0.430   9.182
22849SOL    HW270555   6.830   0.418   9.118
22850SOL     OW70556   6.744   0.205   8.914
22850SOL    HW170557   6.743   0.272   8.987
22850SOL    HW270558   6.786   0.257   8.843
22851SOL     OW70559   5.602   1.325   7.648
22851SOL    HW170560   5.512   1.346   7.614
22851SOL    HW270561   5.589   1.232   7.677
22852SOL     OW70562   5.685   1.782   8.400
22852SOL    HW170563   5.656   1.707   8.344
22852SOL    HW270564   5.775   1.799   8.365
22853SOL     OW70565   6.066   1.579   8.383
22853SOL    HW170566   6.133   1.647   8.403
22853SOL    HW270567   6.113   1.523   8.319
22854SOL     OW70568   6.568   0.771   8.654
22854SOL    HW170569   6.635   0.753   8.723
22854SOL    HW270570   6.487   0.761   8.704
22855SOL     OW70571   5.615   0.521   8.556
22855SOL    HW170572   5.688   0.517   8.492
22855SOL    HW270573   5.662   0.538   8.638
22856SOL     OW70574   5.790   0.519   9.169
22856SOL    HW170575   5.847   0.483   9.100
22856SOL    HW270576   5.757   0.601   9.127
22857SOL     OW70577   6.975   0.928   9.097
22857SOL    HW170578   6.996   1.022   9.092
22857SOL    HW270579   6.970   0.904   9.002
22858SOL     OW70580   6.401   0.588   7.821
22858SOL    HW170581   6.409   0.502   7.777
22858SOL    HW270582   6.315   0.621   7.789
22859SOL     OW70583   7.242   0.641   8.656
22859SOL    HW170584   7.195   0.565   8.690
22859SOL    HW270585   7.318   0.601   8.609
22860SOL     OW70586   5.828   1.539   9.172
22860SOL    HW170587   5.830   1.610   9.238
22860SOL    HW270588   5.841   1.458   9.225
22861SOL     OW70589   6.272   0.463   8.708
22861SOL    HW170590   6.224   0.384   8.679
22861SOL    HW270591   6.265   0.521   8.629
22862SOL     OW70592   6.498   1.702   8.919
22862SOL    HW170593   6.503   1.650   8.837
22862SOL    HW270594   6.527   1.791   8.888
22863SOL     OW70595   6.035   0.478   7.647
22863SOL    HW170596   6.094   0.554   7.654
22863SOL    HW270597   5.948   0.524   7.639
22864SOL     OW70598   5.710   1.140   8.929
22864SOL    HW170599   5.731   1.091   9.010
22864SOL    HW270600   5.729   1.075   8.857
22865SOL     OW70601   6.901   1.044   8.674
22865SOL    HW170602   6.920   0.983   8.599
22865SOL    HW270603   6.840   1.106   8.631
22866SOL     OW70604   6.899   0.866   7.744
22866SOL    HW170605   6.840   0.817   7.803
22866SOL    HW270606   6.865   0.849   7.655
22867SOL     OW70607   7.335   1.750   8.570
22867SOL    HW170608   7.413   1.773   8.517
22867SOL    HW270609   7.336   1.652   8.564
22868SOL     OW70610   6.833   1.731   8.559
22868SOL    HW170611   6.919   1.748   8.518
22868SOL    HW270612   6.838   1.635   8.578
22869SOL     OW70613   5.689   1.239   8.483
22869SOL    HW170614   5.657   1.258   8.573
22869SOL    HW270615   5.608   1.213   8.438
22870SOL     OW70616   7.280   0.098   7.940
22870SOL    HW170617   7.356   0.122   7.884
22870SOL    HW270618   7.322   0.058   8.017
22871SOL     OW70619   6.943   1.580   7.931
22871SOL    HW170620   7.004   1.595   7.857
22871SOL    HW270621   6.903   1.668   7.944
22872SOL     OW70622   5.717   1.796   9.296
22872SOL    HW170623   5.646   1.859   9.311
22872SOL    HW270624   5.785   1.829   9.358
22873SOL     OW70625   6.847   0.919   8.118
22873SOL    HW170626   6.925   0.863   8.136
22873SOL    HW270627   6.887   0.994   8.071
22874SOL     OW70628   6.395   1.257   8.869
22874SOL    HW170629   6.368   1.312   8.946
22874SOL    HW270630   6.321   1.274   8.809
22875SOL     OW70631   6.247   1.612   7.602
22875SOL    HW170632   6.261   1.624   7.506
22875SOL    HW270633   6.187   1.533   7.601
22876SOL     OW70634   7.206   1.721   8.848
22876SOL    HW170635   7.254   1.736   8.765
22876SOL    HW270636   7.196   1.812   8.881
22877SOL     OW70637   7.437   0.123   8.408
22877SOL    HW170638   7.457   0.046   8.353
22877SOL    HW270639   7.350   0.152   8.372
22878SOL     OW70640   5.836   0.304   8.153
22878SOL    HW170641   5.752   0.348   8.132
22878SOL    HW270642   5.840   0.314   8.250
22879SOL     OW70643   6.778   1.626   7.470
22879SOL    HW170644   6.786   1.531   7.488
22879SOL    HW270645   6.718   1.630   7.393
22880SOL     OW70646   6.400   0.984   8.818
22880SOL    HW170647   6.417   0.997   8.724
22880SOL    HW270648   6.402   1.075   8.852
22881SOL     OW70649   7.142   1.644   7.486
22881SOL    HW170650   7.046   1.650   7.485
22881SOL    HW270651   7.161   1.634   7.390
22882SOL     OW70652   5.936   1.285   8.937
22882SOL    HW170653   5.922   1.357   8.873
22882SOL    HW270654   5.855   1.232   8.928
22883SOL     OW70655   7.194   1.302   8.721
22883SOL    HW170656   7.245   1.271   8.796
22883SOL    HW270657   7.139   1.373   8.762
22884SOL     OW70658   6.628   1.121   8.159
22884SOL    HW170659   6.570   1.065   8.214
22884SOL    HW270660   6.697   1.059   8.133
22885SOL     OW70661   6.601   0.285   8.429
22885SOL    HW170662   6.579   0.240   8.347
22885SOL    HW270663   6.602   0.212   8.493
22886SOL     OW70664   6.195   1.482   7.942
22886SOL    HW170665   6.250   1.455   7.866
22886SOL    HW270666   6.122   1.527   7.899
22887SOL     OW70667   7.288   0.374   8.838
22887SOL    HW170668   7.329   0.460   8.820
22887SOL    HW270669   7.338   0.316   8.777
22888SOL     OW70670   5.851   1.369   7.741
22888SOL    HW170671   5.756   1.359   7.721
22888SOL    HW270672   5.849   1.403   7.833
22889SOL     OW70673   5.735   1.066   9.195
22889SOL    HW170674   5.653   1.032   9.238
22889SOL    HW270675   5.801   0.998   9.220
22890SOL     OW70676   6.239   0.220   8.937
22890SOL    HW170677   6.321   0.179   8.904
22890SOL    HW270678   6.268   0.250   9.026
22891SOL     OW70679   5.651   0.358   7.483
22891SOL    HW170680   5.560   0.366   7.453
22891SOL    HW270681   5.696   0.421   7.425
22892SOL     OW70682   7.023   0.854   8.841
22892SOL    HW170683   6.980   0.915   8.777
22892SOL    HW270684   7.116   0.865   8.817
22893SOL     OW70685   5.603   0.166   7.757
22893SOL    HW170686   5.605   0.234   7.689
22893SOL    HW270687   5.693   0.131   7.753
22894SOL     OW70688   6.791   1.351   7.558
22894SOL    HW170689   6.697   1.331   7.549
22894SOL    HW270690   6.803   1.348   7.655
22895SOL     OW70691   6.205   0.790   8.875
22895SOL    HW170692   6.260   0.870   8.871
22895SOL    HW270693   6.274   0.723   8.886
22896SOL     OW70694   7.093   1.770   8.414
22896SOL    HW170695   7.129   1.806   8.333
22896SOL    HW270696   7.172   1.763   8.470
22897SOL     OW70697   6.309   0.576   9.139
22897SOL    HW170698   6.354   0.639   9.198
22897SOL    HW270699   6.340   0.490   9.169
22898SOL     OW70700   7.051   1.186   9.063
22898SOL    HW170701   7.052   1.189   9.161
22898SOL    HW270702   7.146   1.194   9.042
22899SOL     OW70703   5.954   1.728   9.012
22899SOL    HW170704   5.873   1.779   8.994
22899SOL    HW270705   5.916   1.643   9.042
22900SOL     OW70706   7.262   0.911   8.701
22900SOL    HW170707   7.253   0.821   8.663
22900SOL    HW270708   7.235   0.969   8.627
22901SOL     OW70709   6.811   0.299   7.890
22901SOL    HW170710   6.873   0.225   7.903
22901SOL    HW270711   6.832   0.354   7.970
22902SOL     OW70712   6.185   0.743   8.086
22902SOL    HW170713   6.202   0.839   8.091
22902SOL    HW270714   6.103   0.736   8.035
22903SOL     OW70715   7.360   0.378   9.091
22903SOL    HW170716   7.331   0.382   8.998
22903SOL    HW270717   7.287   0.324   9.128
22904SOL     OW70718   7.338   0.932   8.956
22904SOL    HW170719   7.336   1.028   8.963
22904SOL    HW270720   7.325   0.919   8.860
22905SOL     OW70721   6.448   1.364   7.486
22905SOL    HW170722   6.416   1.384   7.576
22905SOL    HW270723   6.464   1.452   7.448
22906SOL     OW70724   6.224   1.796   8.368
22906SOL    HW170725   6.218   1.891   8.352
22906SOL    HW270726   6.319   1.777   8.367
22907SOL     OW70727   6.463   0.950   8.298
22907SOL    HW170728   6.515   0.876   8.332
22907SOL    HW270729   6.436   0.997   8.379
22908SOL     OW70730   6.659   0.978   7.565
22908SOL    HW170731   6.640   1.043   7.494
22908SOL    HW270732   6.728   0.925   7.521
22909SOL     OW70733   7.449   1.550   8.275
22909SOL    HW170734   7.353   1.556   8.276
22909SOL    HW270735   7.466   1.490   8.349
22910SOL     OW70736   5.823   1.310   9.319
22910SOL    HW170737   5.769   1.237   9.285
22910SOL    HW270738   5.810   1.303   9.415
22911SOL     OW70739   5.668   1.258   8.103
22911SOL    HW170740   5.663   1.198   8.178
22911SOL    HW270741   5.752   1.233   8.062
22912SOL     OW70742   6.261   1.403   9.059
22912SOL    HW170743   6.202   1.335   9.096
22912SOL    HW270744   6.226   1.483   9.098
22913SOL     OW70745   7.417   0.201   8.670
22913SOL    HW170746   7.397   0.106   8.679
22913SOL    HW270747   7.421   0.209   8.574
22914SOL     OW70748   6.014   0.408   7.964
22914SOL    HW170749   6.042   0.331   7.911
22914SOL    HW270750   5.974   0.369   8.043
22915SOL     OW70751   7.309   1.491   8.536
22915SOL    HW170752   7.219   1.479   8.501
22915SOL    HW270753   7.312   1.422   8.605
22916SOL     OW70754   5.909   0.550   8.730
22916SOL    HW170755   5.977   0.506   8.785
22916SOL    HW270756   5.934   0.528   8.639
22917SOL     OW70757   6.409   1.596   8.132
22917SOL    HW170758   6.401   1.640   8.046
22917SOL    HW270759   6.325   1.550   8.140
22918SOL     OW70760   7.003   0.237   8.538
22918SOL    HW170761   7.043   0.161   8.581
22918SOL    HW270762   6.958   0.283   8.613
22919SOL     OW70763   6.579   0.007   8.609
22919SOL    HW170764   6.535  11.021   8.604
22919SOL    HW270765   6.672  11.083   8.594
22920SOL     OW70766   6.378   1.348   7.759
22920SOL    HW170767   6.363   1.253   7.757
22920SOL    HW270768   6.453   1.356   7.821
22921SOL     OW70769   6.188   1.569   8.713
22921SOL    HW170770   6.197   1.646   8.771
22921SOL    HW270771   6.281   1.557   8.686
22922SOL     OW70772   6.899   0.068   7.638
22922SOL    HW170773   6.924  11.096   7.581
22922SOL    HW270774   6.807   0.047   7.660
22923SOL     OW70775   6.850   0.448   8.096
22923SOL    HW170776   6.812   0.536   8.109
22923SOL    HW270777   6.901   0.435   8.178
22924SOL     OW70778   7.193   0.197   8.328
22924SOL    HW170779   7.123   0.222   8.390
22924SOL    HW270780   7.198   0.281   8.278
22925SOL     OW70781   5.622   1.074   7.773
22925SOL    HW170782   5.715   1.074   7.743
22925SOL    HW270783   5.605   0.977   7.775
22926SOL     OW70784   6.458   1.650   7.772
22926SOL    HW170785   6.380   1.631   7.715
22926SOL    HW270786   6.433   1.730   7.822
22927SOL     OW70787   5.813   0.619   9.442
22927SOL    HW170788   5.719   0.610   9.463
22927SOL    HW270789   5.815   0.610   9.346
22928SOL     OW70790   5.788   0.290  10.304
22928SOL    HW170791   5.810   0.267  10.396
22928SOL    HW270792   5.725   0.219  10.281
22929SOL     OW70793   5.584   0.430   9.965
22929SOL    HW170794   5.502   0.436  10.019
22929SOL    HW270795   5.563   0.357   9.906
22930SOL     OW70796   6.143   1.298  10.450
22930SOL    HW170797   6.047   1.286  10.444
22930SOL    HW270798   6.149   1.377  10.506
22931SOL     OW70799   7.138   1.522  10.017
22931SOL    HW170800   7.104   1.497  10.105
22931SOL    HW270801   7.060   1.521   9.959
22932SOL     OW70802   6.723   0.678  10.005
22932SOL    HW170803   6.760   0.768   9.998
22932SOL    HW270804   6.670   0.685  10.084
22933SOL     OW70805   7.358   0.602   9.547
22933SOL    HW170806   7.337   0.594   9.452
22933SOL    HW270807   7.318   0.521   9.583
22934SOL     OW70808   6.337   1.153  10.339
22934SOL    HW170809   6.263   1.201  10.382
22934SOL    HW270810   6.379   1.227  10.292
22935SOL     OW70811   6.470   0.786  11.095
22935SOL    HW170812   6.451   0.847   0.066
22935SOL    HW270813   6.515   0.846  11.031
22936SOL     OW70814   6.276   1.020   9.983
22936SOL    HW170815   6.347   1.007  10.049
22936SOL    HW270816   6.211   1.073  10.032
22937SOL     OW70817   5.897   1.433  10.385
22937SOL    HW170818   5.822   1.404  10.331
22937SOL    HW270819   5.954   1.483  10.322
22938SOL     OW70820   7.054   1.502  10.657
22938SOL    HW170821   7.111   1.580  10.674
22938SOL    HW270822   6.983   1.514  10.723
22939SOL     OW70823   6.025   0.400  10.826
22939SOL    HW170824   6.096   0.337  10.806
22939SOL    HW270825   5.943   0.348  10.819
22940SOL     OW70826   7.203   0.451  10.051
22940SOL    HW170827   7.127   0.471   9.993
22940SOL    HW270828   7.196   0.522  10.116
22941SOL     OW70829   5.807   1.712   9.786
22941SOL    HW170830   5.833   1.789   9.842
22941SOL    HW270831   5.874   1.716   9.717
22942SOL     OW70832   5.832   1.426   9.842
22942SOL    HW170833   5.829   1.521   9.859
22942SOL    HW270834   5.765   1.391   9.904
22943SOL     OW70835   5.832   1.093  10.184
22943SOL    HW170836   5.854   1.017  10.240
22943SOL    HW270837   5.786   1.152  10.248
22944SOL     OW70838   6.185   1.802  10.731
22944SOL    HW170839   6.113   1.778  10.792
22944SOL    HW270840   6.201   1.895  10.754
22945SOL     OW70841   6.156   0.980   9.427
22945SOL    HW170842   6.207   1.026   9.358
22945SOL    HW270843   6.200   1.016   9.507
22946SOL     OW70844   7.192   0.134  10.785
22946SOL    HW170845   7.211   0.215  10.735
22946SOL    HW270846   7.132   0.164  10.854
22947SOL     OW70847   7.434   1.739   9.656
22947SOL    HW170848   7.506   1.718   9.719
22947SOL    HW270849   7.456   1.832   9.634
22948SOL     OW70850   7.283   0.917   9.909
22948SOL    HW170851   7.338   0.863   9.849
22948SOL    HW270852   7.249   0.984   9.848
22949SOL     OW70853   7.232   1.130   9.746
22949SOL    HW170854   7.325   1.127   9.718
22949SOL    HW270855   7.237   1.195   9.820
22950SOL     OW70856   5.707   0.731  10.911
22950SOL    HW170857   5.799   0.736  10.937
22950SOL    HW270858   5.677   0.822  10.925
22951SOL     OW70859   6.177   1.407  10.071
22951SOL    HW170860   6.135   1.319  10.080
22951SOL    HW270861   6.172   1.418   9.974
22952SOL     OW70862   6.883   1.243  10.742
22952SOL    HW170863   6.903   1.172  10.678
22952SOL    HW270864   6.932   1.216  10.821
22953SOL     OW70865   6.416   0.001   9.836
22953SOL    HW170866   6.449   0.089   9.810
22953SOL    HW270867   6.320   0.011   9.822
22954SOL     OW70868   5.798   0.971  10.611
22954SOL    HW170869   5.877   0.915  10.596
22954SOL    HW270870   5.728   0.919  10.570
22955SOL     OW70871   7.123   0.966   9.496
22955SOL    HW170872   7.043   0.921   9.527
22955SOL    HW270873   7.160   1.002   9.578
22956SOL     OW70874   6.815   1.808  10.900
22956SOL    HW170875   6.784   1.870  10.834
22956SOL    HW270876   6.815   1.723  10.852
22957SOL     OW70877   5.893   0.239   0.044
22957SOL    HW170878   5.963   0.303   0.029
22957SOL    HW270879   5.813   0.295   0.044
22958SOL     OW70880   7.060   1.417  10.266
22958SOL    HW170881   6.995   1.437  10.337
22958SOL    HW270882   7.032   1.328  10.239
22959SOL     OW70883   7.244   1.735   9.902
22959SOL    HW170884   7.224   1.696   9.816
22959SOL    HW270885   7.220   1.661   9.962
22960SOL     OW70886   6.182   0.713   9.567
22960SOL    HW170887   6.199   0.789   9.508
22960SOL    HW270888   6.131   0.753   9.638
22961SOL     OW70889   6.860   0.370  10.255
22961SOL    HW170890   6.778   0.318  10.253
22961SOL    HW270891   6.917   0.316  10.314
22962SOL     OW70892   7.157   1.643   9.619
22962SOL    HW170893   7.251   1.669   9.619
22962SOL    HW270894   7.143   1.630   9.524
22963SOL     OW70895   6.409   0.591  10.762
22963SOL    HW170896   6.377   0.574  10.853
22963SOL    HW270897   6.353   0.533  10.709
22964SOL     OW70898   6.584   0.924  10.883
22964SOL    HW170899   6.622   0.845  10.839
22964SOL    HW270900   6.513   0.948  10.822
22965SOL     OW70901   6.562   0.398  10.541
22965SOL    HW170902   6.476   0.424  10.578
22965SOL    HW270903   6.539   0.342  10.467
22966SOL     OW70904   6.580   0.736   9.751
22966SOL    HW170905   6.639   0.718   9.826
22966SOL    HW270906   6.550   0.648   9.727
22967SOL     OW70907   5.699   0.826  10.088
22967SOL    HW170908   5.774   0.828  10.152
22967SOL    HW270909   5.650   0.907  10.115
22968SOL     OW70910   5.697   1.826  10.853
22968SOL    HW170911   5.703   1.795  10.945
22968SOL    HW270912   5.606   1.857  10.847
22969SOL     OW70913   6.485   0.369   9.536
22969SOL    HW170914   6.574   0.400   9.511
22969SOL    HW270915   6.474   0.292   9.479
22970SOL     OW70916   6.951   1.142   9.874
22970SOL    HW170917   7.027   1.134   9.816
22970SOL    HW270918   6.895   1.203   9.824
22971SOL     OW70919   6.120   0.196  10.180
22971SOL    HW170920   6.154   0.212  10.270
22971SOL    HW270921   6.134   0.281  10.136
22972SOL     OW70922   6.573   1.445   9.776
22972SOL    HW170923   6.533   1.514   9.720
22972SOL    HW270924   6.588   1.492   9.859
22973SOL     OW70925   5.935   1.808  10.171
22973SOL    HW170926   5.981   1.726  10.195
22973SOL    HW270927   6.004   1.875  10.187
22974SOL     OW70928   7.404   1.044  10.161
22974SOL    HW170929   7.346   1.019  10.088
22974SOL    HW270930   7.345   1.036  10.238
22975SOL     OW70931   6.828   1.563  10.795
22975SOL    HW170932   6.804   1.509  10.872
22975SOL    HW270933   6.762   1.534  10.731
22976SOL     OW70934   5.892   0.940   9.551
22976SOL    HW170935   5.981   0.955   9.516
22976SOL    HW270936   5.864   0.865   9.497
22977SOL     OW70937   7.066   0.759  10.025
22977SOL    HW170938   7.065   0.711  10.110
22977SOL    HW270939   7.150   0.807  10.027
22978SOL     OW70940   6.072   1.238  11.037
22978SOL    HW170941   6.041   1.260  10.947
22978SOL    HW270942   5.997   1.187  11.070
22979SOL     OW70943   6.679   1.772   9.547
22979SOL    HW170944   6.610   1.717   9.587
22979SOL    HW270945   6.697   1.726   9.463
22980SOL     OW70946   5.770   0.281  10.801
22980SOL    HW170947   5.696   0.331  10.839
22980SOL    HW270948   5.757   0.194  10.844
22981SOL     OW70949   7.206   1.357   9.408
22981SOL    HW170950   7.164   1.439   9.379
22981SOL    HW270951   7.150   1.287   9.369
22982SOL     OW70952   6.051   1.732   9.629
22982SOL    HW170953   6.094   1.788   9.698
22982SOL    HW270954   6.124   1.717   9.567
22983SOL     OW70955   6.992   0.071   9.744
22983SOL    HW170956   6.980   0.067   9.647
22983SOL    HW270957   7.074   0.120   9.755
22984SOL     OW70958   5.831   1.791  10.527
22984SOL    HW170959   5.893   1.735  10.575
22984SOL    HW270960   5.814   1.743  10.445
22985SOL     OW70961   6.547   1.714  10.181
22985SOL    HW170962   6.627   1.662  10.195
22985SOL    HW270963   6.499   1.660  10.115
22986SOL     OW70964   5.893   0.687   9.802
22986SOL    HW170965   5.938   0.600   9.791
22986SOL    HW270966   5.947   0.729   9.869
22987SOL     OW70967   6.221   0.132   9.414
22987SOL    HW170968   6.285   0.070   9.450
22987SOL    HW270969   6.179   0.079   9.344
22988SOL     OW70970   6.335   0.289  11.040
22988SOL    HW170971   6.397   0.226  11.081
22988SOL    HW270972   6.267   0.295   0.007
22989SOL     OW70973   6.471   1.549  10.507
22989SOL    HW170974   6.461   1.511  10.418
22989SOL    HW270975   6.544   1.497  10.545
22990SOL     OW70976   6.919   0.587  10.738
22990SOL    HW170977   6.975   0.547  10.805
22990SOL    HW270978   6.964   0.673  10.724
22991SOL     OW70979   6.396   1.408  10.253
22991SOL    HW170980   6.480   1.405  10.203
22991SOL    HW270981   6.328   1.401  10.184
22992SOL     OW70982   6.537   0.525  10.213
22992SOL    HW170983   6.505   0.501  10.123
22992SOL    HW270984   6.568   0.439  10.244
22993SOL     OW70985   6.127   0.033   9.810
22993SOL    HW170986   6.040   0.030   9.852
22993SOL    HW270987   6.120   0.112   9.754
22994SOL     OW70988   7.030   1.171   9.327
22994SOL    HW170989   7.058   1.096   9.382
22994SOL    HW270990   6.948   1.200   9.369
22995SOL     OW70991   5.901   0.016   9.507
22995SOL    HW170992   5.963   0.090   9.498
22995SOL    HW270993   5.954  11.054   9.557
22996SOL     OW70994   6.511   0.248   9.793
22996SOL    HW170995   6.496   0.296   9.710
22996SOL    HW270996   6.609   0.248   9.797
22997SOL     OW70997   6.679   0.708  10.755
22997SOL    HW170998   6.612   0.639  10.766
22997SOL    HW270999   6.763   0.657  10.754
22998SOL     OW71000   6.806   1.574  10.119
22998SOL    HW171001   6.812   1.624  10.035
22998SOL    HW271002   6.879   1.611  10.171
22999SOL     OW71003   6.049   1.168  10.044
22999SOL    HW171004   5.973   1.144  10.100
22999SOL    HW271005   6.020   1.131   9.958
23000SOL     OW71006   6.836   1.815   9.896
23000SOL    HW171007   6.889   1.879   9.845
23000SOL    HW271008   6.806   1.869   9.970
23001SOL     OW71009   6.636   0.547   9.292
23001SOL    HW171010   6.585   0.629   9.299
23001SOL    HW271011   6.696   0.553   9.369
23002SOL     OW71012   5.676   0.577  10.688
23002SOL    HW171013   5.772   0.562  10.674
23002SOL    HW271014   5.675   0.640  10.762
23003SOL     OW71015   6.148   0.238  10.468
23003SOL    HW171016   6.192   0.180  10.531
23003SOL    HW271017   6.055   0.225  10.490
23004SOL     OW71018   6.455   0.450   9.971
23004SOL    HW171019   6.421   0.508   9.901
23004SOL    HW271020   6.482   0.371   9.920
23005SOL     OW71021   6.582   0.018  10.085
23005SOL    HW171022   6.543   0.047  10.001
23005SOL    HW271023   6.550  11.028  10.093
23006SOL     OW71024   7.006   1.155  10.198
23006SOL    HW171025   6.928   1.098  10.204
23006SOL    HW271026   7.027   1.145  10.104
23007SOL     OW71027   7.080   0.610  10.268
23007SOL    HW171028   7.021   0.534  10.273
23007SOL    HW271029   7.135   0.599  10.348
23008SOL     OW71030   7.419   0.798   9.707
23008SOL    HW171031   7.481   0.749   9.765
23008SOL    HW271032   7.400   0.730   9.639
23009SOL     OW71033   6.075   1.420   9.430
23009SOL    HW171034   5.996   1.406   9.485
23009SOL    HW271035   6.071   1.348   9.366
23010SOL     OW71036   7.261   1.281   9.971
23010SOL    HW171037   7.358   1.290   9.974
23010SOL    HW271038   7.228   1.371   9.987
23011SOL     OW71039   7.011   0.624   9.347
23011SOL    HW171040   6.952   0.588   9.417
23011SOL    HW271041   7.096   0.587   9.373
23012SOL     OW71042   6.095   0.244   9.622
23012SOL    HW171043   6.153   0.214   9.549
23012SOL    HW271044   6.068   0.332   9.591
23013SOL     OW71045   7.343   1.225  10.875
23013SOL    HW171046   7.437   1.204  10.885
23013SOL    HW271047   7.343   1.320  10.897
23014SOL     OW71048   6.636   1.386  10.681
23014SOL    HW171049   6.559   1.334  10.709
23014SOL    HW271050   6.708   1.322  10.694
23015SOL     OW71051   6.698   1.240  10.418
23015SOL    HW171052   6.615   1.245  10.466
23015SOL    HW271053   6.675   1.278  10.331
23016SOL     OW71054   7.215   1.090  10.384
23016SOL    HW171055   7.225   1.157  10.455
23016SOL    HW271056   7.142   1.128  10.335
23017SOL     OW71057   6.462   0.085  10.701
23017SOL    HW171058   6.498   0.068  10.612
23017SOL    HW271059   6.539   0.128  10.743
23018SOL     OW71060   6.294   1.060   9.651
23018SOL    HW171061   6.290   1.042   9.746
23018SOL    HW271062   6.371   1.004   9.624
23019SOL     OW71063   6.011   0.793  10.572
23019SOL    HW171064   6.085   0.795  10.636
23019SOL    HW271065   5.979   0.702  10.586
23020SOL     OW71066   6.847   0.358  10.611
23020SOL    HW171067   6.867   0.448  10.644
23020SOL    HW271068   6.772   0.376  10.552
23021SOL     OW71069   5.654   1.565  10.629
23021SOL    HW171070   5.640   1.661  10.625
23021SOL    HW271071   5.750   1.556  10.643
23022SOL     OW71072   5.955   1.078   9.807
23022SOL    HW171073   5.999   1.145   9.752
23022SOL    HW271074   5.930   1.011   9.743
23023SOL     OW71075   6.115   0.554  10.137
23023SOL    HW171076   6.148   0.620  10.073
23023SOL    HW271077   6.184   0.555  10.206
23024SOL     OW71078   6.817   1.339   9.704
23024SOL    HW171079   6.860   1.413   9.749
23024SOL    HW271080   6.725   1.349   9.732
23025SOL     OW71081   6.876   1.455  10.463
23025SOL    HW171082   6.937   1.450  10.539
23025SOL    HW271083   6.821   1.375  10.473
23026SOL     OW71084   7.175   0.629   9.786
23026SOL    HW171085   7.119   0.683   9.844
23026SOL    HW271086   7.191   0.688   9.711
23027SOL     OW71087   5.925   1.493  10.637
23027SOL    HW171088   5.909   1.466  10.544
23027SOL    HW271089   6.019   1.519  10.635
23028SOL     OW71090   6.029   0.709  10.922
23028SOL    HW171091   6.094   0.751  10.862
23028SOL    HW271092   6.045   0.616  10.905
23029SOL     OW71093   7.204   0.758  10.999
23029SOL    HW171094   7.144   0.827  11.027
23029SOL    HW271095   7.262   0.805  10.938
23030SOL     OW71096   6.132   0.917  10.346
23030SOL    HW171097   6.198   0.987  10.355
23030SOL    HW271098   6.110   0.894  10.438
23031SOL     OW71099   6.937   0.845  10.371
23031SOL    HW171100   6.866   0.823  10.309
23031SOL    HW271101   7.001   0.775  10.352
23032SOL     OW71102   5.863   0.198  10.551
23032SOL    HW171103   5.826   0.241  10.631
23032SOL    HW271104   5.855   0.104  10.574
23033SOL     OW71105   5.646   1.283  10.591
23033SOL    HW171106   5.673   1.236  10.673
23033SOL    HW271107   5.637   1.375  10.622
23034SOL     OW71108   6.298   0.614  10.335
23034SOL    HW171109   6.387   0.596  10.299
23034SOL    HW271110   6.278   0.703  10.302
23035SOL     OW71111   5.864   0.056   9.913
23035SOL    HW171112   5.848   0.148   9.938
23035SOL    HW271113   5.880   0.018  10.002
23036SOL     OW71114   7.191   0.391   9.653
23036SOL    HW171115   7.225   0.326   9.715
23036SOL    HW271116   7.174   0.468   9.710
23037SOL     OW71117   6.652   0.761  10.268
23037SOL    HW171118   6.630   0.782  10.361
23037SOL    HW271119   6.621   0.668  10.260
23038SOL     OW71120   6.583   1.555  10.967
23038SOL    HW171121   6.566   1.621  10.896
23038SOL    HW271122   6.541   1.477  10.931
23039SOL     OW71123   7.442   1.489  10.902
23039SOL    HW171124   7.457   1.524  10.813
23039SOL    HW271125   7.525   1.513  10.948
23040SOL     OW71126   5.951   0.909  11.072
23040SOL    HW171127   6.029   0.929   0.025
23040SOL    HW271128   5.980   0.828  11.025
23041SOL     OW71129   7.098   0.253   9.429
23041SOL    HW171130   7.014   0.215   9.460
23041SOL    HW271131   7.127   0.309   9.503
23042SOL     OW71132   6.859   0.843   9.321
23042SOL    HW171133   6.908   0.758   9.330
23042SOL    HW271134   6.895   0.875   9.236
23043SOL     OW71135   6.648   1.361  10.169
23043SOL    HW171136   6.665   1.284  10.110
23043SOL    HW271137   6.718   1.425  10.143
23044SOL     OW71138   5.889   0.823  10.275
23044SOL    HW171139   5.978   0.857  10.294
23044SOL    HW271140   5.890   0.738  10.320
23045SOL     OW71141   5.913   0.534  10.306
23045SOL    HW171142   5.884   0.442  10.294
23045SOL    HW271143   5.984   0.541  10.238
23046SOL     OW71144   6.687   0.221  10.787
23046SOL    HW171145   6.722   0.261  10.868
23046SOL    HW271146   6.731   0.275  10.718
23047SOL     OW71147   5.567   1.331   9.521
23047SOL    HW171148   5.477   1.333   9.479
23047SOL    HW271149   5.576   1.237   9.544
23048SOL     OW71150   5.683   1.788  10.252
23048SOL    HW171151   5.653   1.717  10.191
23048SOL    HW271152   5.776   1.801  10.223
23049SOL     OW71153   6.074   1.582  10.250
23049SOL    HW171154   6.150   1.637  10.277
23049SOL    HW271155   6.116   1.519  10.188
23050SOL     OW71156   6.560   0.805  10.533
23050SOL    HW171157   6.626   0.772  10.597
23050SOL    HW271158   6.479   0.765  10.568
23051SOL     OW71159   5.629   0.539  10.429
23051SOL    HW171160   5.712   0.515  10.386
23051SOL    HW271161   5.654   0.550  10.523
23052SOL     OW71162   6.375   0.554   9.699
23052SOL    HW171163   6.418   0.493   9.635
23052SOL    HW271164   6.325   0.612   9.640
23053SOL     OW71165   7.245   0.617  10.488
23053SOL    HW171166   7.227   0.545  10.550
23053SOL    HW271167   7.334   0.591  10.456
23054SOL     OW71168   5.840   1.574  11.062
23054SOL    HW171169   5.846   1.649   0.022
23054SOL    HW271170   5.823   1.500   0.021
23055SOL     OW71171   6.274   0.470  10.563
23055SOL    HW171172   6.226   0.393  10.530
23055SOL    HW271173   6.270   0.532  10.488
23056SOL     OW71174   6.531   1.701  10.739
23056SOL    HW171175   6.500   1.661  10.656
23056SOL    HW271176   6.506   1.795  10.732
23057SOL     OW71177   6.032   0.481   9.516
23057SOL    HW171178   6.097   0.553   9.524
23057SOL    HW271179   5.951   0.532   9.497
23058SOL     OW71180   5.737   1.143  10.797
23058SOL    HW171181   5.732   1.085  10.876
23058SOL    HW271182   5.767   1.080  10.727
23059SOL     OW71183   6.888   1.057  10.545
23059SOL    HW171184   6.913   0.989  10.479
23059SOL    HW271185   6.818   1.106  10.500
23060SOL     OW71186   6.887   0.851   9.600
23060SOL    HW171187   6.850   0.766   9.629
23060SOL    HW271188   6.866   0.850   9.505
23061SOL     OW71189   7.345   1.755  10.444
23061SOL    HW171190   7.411   1.778  10.376
23061SOL    HW271191   7.338   1.658  10.430
23062SOL     OW71192   6.829   1.719  10.437
23062SOL    HW171193   6.920   1.738  10.412
23062SOL    HW271194   6.832   1.622  10.450
23063SOL     OW71195   5.683   1.243  10.336
23063SOL    HW171196   5.671   1.258  10.433
23063SOL    HW271197   5.597   1.209  10.311
23064SOL     OW71198   7.280   0.115   9.809
23064SOL    HW171199   7.357   0.128   9.750
23064SOL    HW271200   7.313   0.055   9.876
23065SOL     OW71201   6.949   1.580   9.803
23065SOL    HW171202   7.006   1.599   9.726
23065SOL    HW271203   6.904   1.666   9.818
23066SOL     OW71204   6.849   0.920  10.006
23066SOL    HW171205   6.926   0.860  10.010
23066SOL    HW271206   6.882   0.989   9.946
23067SOL     OW71207   6.397   1.250  10.741
23067SOL    HW171208   6.373   1.284  10.829
23067SOL    HW271209   6.324   1.284  10.687
23068SOL     OW71210   6.249   1.618   9.458
23068SOL    HW171211   6.308   1.581   9.392
23068SOL    HW271212   6.183   1.545   9.463
23069SOL     OW71213   7.210   1.714  10.686
23069SOL    HW171214   7.262   1.732  10.606
23069SOL    HW271215   7.197   1.802  10.724
23070SOL     OW71216   7.450   0.119  10.256
23070SOL    HW171217   7.461   0.040  10.201
23070SOL    HW271218   7.368   0.159  10.220
23071SOL     OW71219   5.822   0.302  10.015
23071SOL    HW171220   5.735   0.346  10.009
23071SOL    HW271221   5.835   0.296  10.111
23072SOL     OW71222   6.770   1.627   9.333
23072SOL    HW171223   6.776   1.532   9.354
23072SOL    HW271224   6.715   1.627   9.252
23073SOL     OW71225   6.390   0.981  10.702
23073SOL    HW171226   6.442   0.973  10.621
23073SOL    HW271227   6.399   1.076  10.725
23074SOL     OW71228   6.487   0.905   9.572
23074SOL    HW171229   6.572   0.939   9.537
23074SOL    HW271230   6.520   0.838   9.636
23075SOL     OW71231   7.107   1.605   9.347
23075SOL    HW171232   7.013   1.619   9.340
23075SOL    HW271233   7.137   1.612   9.254
23076SOL     OW71234   5.964   1.286  10.801
23076SOL    HW171235   5.941   1.358  10.739
23076SOL    HW271236   5.880   1.237  10.805
23077SOL     OW71237   7.201   1.295  10.580
23077SOL    HW171238   7.245   1.269  10.662
23077SOL    HW271239   7.142   1.366  10.612
23078SOL     OW71240   6.644   1.127  10.043
23078SOL    HW171241   6.567   1.075  10.071
23078SOL    HW271242   6.704   1.057  10.014
23079SOL     OW71243   6.628   0.234  10.290
23079SOL    HW171244   6.614   0.183  10.208
23079SOL    HW271245   6.616   0.164  10.357
23080SOL     OW71246   6.190   1.468   9.803
23080SOL    HW171247   6.242   1.435   9.728
23080SOL    HW271248   6.130   1.531   9.762
23081SOL     OW71249   7.292   0.391  10.687
23081SOL    HW171250   7.365   0.455  10.694
23081SOL    HW271251   7.324   0.334  10.614
23082SOL     OW71252   5.830   1.387   9.584
23082SOL    HW171253   5.739   1.353   9.590
23082SOL    HW271254   5.849   1.404   9.679
23083SOL     OW71255   5.714   1.018  11.023
23083SOL    HW171256   5.654   0.999  11.095
23083SOL    HW271257   5.799   0.980  11.055
23084SOL     OW71258   6.253   0.242  10.780
23084SOL    HW171259   6.328   0.188  10.747
23084SOL    HW271260   6.281   0.260  10.872
23085SOL     OW71261   5.656   0.352   9.338
23085SOL    HW171262   5.563   0.368   9.316
23085SOL    HW271263   5.698   0.424   9.285
23086SOL     OW71264   7.034   0.848  10.726
23086SOL    HW171265   6.982   0.915  10.680
23086SOL    HW271266   7.123   0.867  10.692
23087SOL     OW71267   5.634   0.142   9.568
23087SOL    HW171268   5.618   0.237   9.557
23087SOL    HW271269   5.715   0.139   9.622
23088SOL     OW71270   6.785   1.359   9.427
23088SOL    HW171271   6.725   1.284   9.436
23088SOL    HW271272   6.821   1.365   9.518
23089SOL     OW71273   6.213   0.782  10.742
23089SOL    HW171274   6.268   0.863  10.735
23089SOL    HW271275   6.281   0.715  10.760
23090SOL     OW71276   7.098   1.749  10.298
23090SOL    HW171277   7.136   1.795  10.222
23090SOL    HW271278   7.173   1.745  10.359
23091SOL     OW71279   6.299   0.592  11.011
23091SOL    HW171280   6.355   0.658  11.057
23091SOL    HW271281   6.330   0.507  11.045
23092SOL     OW71282   5.961   1.721  10.870
23092SOL    HW171283   5.883   1.776  10.853
23092SOL    HW271284   5.926   1.655  10.932
23093SOL     OW71285   7.262   0.894  10.573
23093SOL    HW171286   7.252   0.804  10.539
23093SOL    HW271287   7.240   0.950  10.495
23094SOL     OW71288   6.791   0.266   9.793
23094SOL    HW171289   6.863   0.202   9.785
23094SOL    HW271290   6.837   0.351   9.784
23095SOL     OW71291   6.190   0.754   9.968
23095SOL    HW171292   6.233   0.842   9.975
23095SOL    HW271293   6.155   0.758   9.879
23096SOL     OW71294   7.355   0.334  10.943
23096SOL    HW171295   7.321   0.356  10.854
23096SOL    HW271296   7.274   0.323  10.993
23097SOL     OW71297   7.346   0.935  10.824
23097SOL    HW171298   7.338   1.031  10.835
23097SOL    HW271299   7.329   0.924  10.728
23098SOL     OW71300   6.397   1.400   9.352
23098SOL    HW171301   6.406   1.384   9.448
23098SOL    HW271302   6.481   1.438   9.325
23099SOL     OW71303   6.250   1.793  10.259
23099SOL    HW171304   6.228   1.883  10.230
23099SOL    HW271305   6.340   1.780  10.227
23100SOL     OW71306   6.471   0.957  10.171
23100SOL    HW171307   6.529   0.884  10.200
23100SOL    HW271308   6.447   1.001  10.254
23101SOL     OW71309   6.694   1.021   9.418
23101SOL    HW171310   6.658   1.059   9.335
23101SOL    HW271311   6.747   0.947   9.382
23102SOL     OW71312   7.431   1.556  10.154
23102SOL    HW171313   7.352   1.537  10.104
23102SOL    HW271314   7.434   1.485  10.219
23103SOL     OW71315   5.681   1.246   9.982
23103SOL    HW171316   5.686   1.213  10.073
23103SOL    HW271317   5.758   1.203   9.942
23104SOL     OW71318   6.271   1.413  10.927
23104SOL    HW171319   6.206   1.356  10.972
23104SOL    HW271320   6.220   1.493  10.911
23105SOL     OW71321   7.369   0.194  10.521
23105SOL    HW171322   7.363   0.098  10.537
23105SOL    HW271323   7.403   0.195  10.430
23106SOL     OW71324   5.988   0.442   9.836
23106SOL    HW171325   6.065   0.400   9.796
23106SOL    HW271326   5.966   0.382   9.909
23107SOL     OW71327   7.310   1.494  10.415
23107SOL    HW171328   7.228   1.467  10.371
23107SOL    HW271329   7.314   1.431  10.488
23108SOL     OW71330   5.930   0.540  10.598
23108SOL    HW171331   5.990   0.484  10.650
23108SOL    HW271332   5.941   0.511  10.506
23109SOL     OW71333   6.414   1.587   9.982
23109SOL    HW171334   6.404   1.625   9.893
23109SOL    HW271335   6.329   1.542   9.996
23110SOL     OW71336   7.018   0.249  10.440
23110SOL    HW171337   7.057   0.175  10.488
23110SOL    HW271338   6.962   0.290  10.510
23111SOL     OW71339   6.579   0.009  10.467
23111SOL    HW171340   6.539  11.021  10.473
23111SOL    HW271341   6.674  11.088  10.471
23112SOL     OW71342   6.372   1.337   9.623
23112SOL    HW171343   6.346   1.244   9.624
23112SOL    HW271344   6.446   1.338   9.687
23113SOL     OW71345   6.186   1.559  10.605
23113SOL    HW171346   6.191   1.645  10.652
23113SOL    HW271347   6.268   1.564  10.552
23114SOL     OW71348   6.900   0.066   9.487
23114SOL    HW171349   6.897  11.100   9.418
23114SOL    HW271350   6.808   0.065   9.521
23115SOL     OW71351   6.912   0.467   9.995
23115SOL    HW171352   6.843   0.530   9.970
23115SOL    HW271353   6.878   0.431  10.079
23116SOL     OW71354   7.213   0.214  10.179
23116SOL    HW171355   7.135   0.224  10.237
23116SOL    HW271356   7.209   0.299  10.130
23117SOL     OW71357   5.634   1.078   9.617
23117SOL    HW171358   5.727   1.056   9.598
23117SOL    HW271359   5.591   0.991   9.610
23118SOL     OW71360   6.456   1.645   9.634
23118SOL    HW171361   6.376   1.639   9.579
23118SOL    HW271362   6.445   1.729   9.682
23119SOL     OW71363   5.836   2.505   0.144
23119SOL    HW171364   5.749   2.471   0.169
23119SOL    HW271365   5.846   2.480   0.052
23120SOL     OW71366   5.806   2.143   1.006
23120SOL    HW171367   5.835   2.117   1.095
23120SOL    HW271368   5.721   2.096   0.997
23121SOL     OW71369   5.588   2.268   0.642
23121SOL    HW171370   5.505   2.283   0.692
23121SOL    HW271371   5.565   2.191   0.590
23122SOL     OW71372   6.121   3.167   1.230
23122SOL    HW171373   6.055   3.172   1.159
23122SOL    HW271374   6.157   3.258   1.230
23123SOL     OW71375   7.144   3.371   0.716
23123SOL    HW171376   7.103   3.353   0.804
23123SOL    HW271377   7.068   3.364   0.656
23124SOL     OW71378   6.720   2.553   0.715
23124SOL    HW171379   6.748   2.644   0.696
23124SOL    HW271380   6.676   2.562   0.801
23125SOL     OW71381   7.369   2.462   0.229
23125SOL    HW171382   7.323   2.486   0.148
23125SOL    HW271383   7.313   2.391   0.265
23126SOL     OW71384   6.316   3.021   1.039
23126SOL    HW171385   6.253   3.066   1.096
23126SOL    HW271386   6.353   3.096   0.988
23127SOL     OW71387   6.471   2.612   1.803
23127SOL    HW171388   6.450   2.676   1.872
23127SOL    HW271389   6.493   2.667   1.726
23128SOL     OW71390   6.282   2.868   0.639
23128SOL    HW171391   6.348   2.849   0.708
23128SOL    HW271392   6.212   2.914   0.689
23129SOL     OW71393   6.281   3.011   1.803
23129SOL    HW171394   6.320   3.095   1.834
23129SOL    HW271395   6.193   3.036   1.772
23130SOL     OW71396   5.900   3.290   1.082
23130SOL    HW171397   5.824   3.248   1.038
23130SOL    HW271398   5.946   3.337   1.008
23131SOL     OW71399   7.056   3.364   1.370
23131SOL    HW171400   7.117   3.439   1.384
23131SOL    HW271401   6.992   3.376   1.441
23132SOL     OW71402   6.011   2.254   1.542
23132SOL    HW171403   6.090   2.202   1.521
23132SOL    HW271404   5.938   2.197   1.510
23133SOL     OW71405   7.226   2.332   0.747
23133SOL    HW171406   7.145   2.341   0.695
23133SOL    HW271407   7.194   2.361   0.835
23134SOL     OW71408   5.815   3.578   0.502
23134SOL    HW171409   5.852   3.661   0.540
23134SOL    HW271410   5.849   3.580   0.412
23135SOL     OW71411   6.700   3.207   1.663
23135SOL    HW171412   6.755   3.204   1.742
23135SOL    HW271413   6.661   3.118   1.665
23136SOL     OW71414   5.834   3.290   0.524
23136SOL    HW171415   5.830   3.386   0.540
23136SOL    HW271416   5.768   3.255   0.586
23137SOL     OW71417   5.854   2.946   0.908
23137SOL    HW171418   5.853   2.871   0.968
23137SOL    HW271419   5.798   3.010   0.955
23138SOL     OW71420   6.187   3.664   1.406
23138SOL    HW171421   6.116   3.634   1.466
23138SOL    HW271422   6.209   3.752   1.441
23139SOL     OW71423   6.172   2.838   0.161
23139SOL    HW171424   6.211   2.897   0.096
23139SOL    HW271425   6.218   2.867   0.242
23140SOL     OW71426   7.197   1.969   1.495
23140SOL    HW171427   7.173   2.043   1.437
23140SOL    HW271428   7.204   2.014   1.581
23141SOL     OW71429   5.707   2.532   0.573
23141SOL    HW171430   5.671   2.444   0.593
23141SOL    HW271431   5.695   2.580   0.657
23142SOL     OW71432   7.431   3.601   0.356
23142SOL    HW171433   7.494   3.579   0.427
23142SOL    HW271434   7.459   3.691   0.333
23143SOL     OW71435   5.668   3.470   0.128
23143SOL    HW171436   5.643   3.381   0.156
23143SOL    HW271437   5.634   3.523   0.202
23144SOL     OW71438   7.301   2.772   0.609
23144SOL    HW171439   7.379   2.769   0.553
23144SOL    HW271440   7.246   2.837   0.561
23145SOL     OW71441   7.212   2.977   0.449
23145SOL    HW171442   7.290   2.989   0.393
23145SOL    HW271443   7.229   3.041   0.522
23146SOL     OW71444   5.703   2.612   1.574
23146SOL    HW171445   5.797   2.633   1.576
23146SOL    HW271446   5.663   2.695   1.605
23147SOL     OW71447   6.165   3.259   0.735
23147SOL    HW171448   6.136   3.165   0.740
23147SOL    HW271449   6.158   3.275   0.639
23148SOL     OW71450   6.865   3.087   1.422
23148SOL    HW171451   6.902   3.025   1.358
23148SOL    HW271452   6.923   3.073   1.499
23149SOL     OW71453   6.420   1.858   0.473
23149SOL    HW171454   6.448   1.951   0.477
23149SOL    HW271455   6.325   1.865   0.492
23150SOL     OW71456   5.761   2.857   1.267
23150SOL    HW171457   5.846   2.810   1.261
23150SOL    HW271458   5.700   2.796   1.223
23151SOL     OW71459   7.131   2.834   0.224
23151SOL    HW171460   7.047   2.785   0.232
23151SOL    HW271461   7.147   2.859   0.316
23152SOL     OW71462   6.763   3.664   1.614
23152SOL    HW171463   6.773   3.727   1.541
23152SOL    HW271464   6.787   3.580   1.569
23153SOL     OW71465   5.931   2.092   1.804
23153SOL    HW171466   5.981   2.172   1.780
23153SOL    HW271467   5.852   2.130   1.844
23154SOL     OW71468   7.047   3.293   0.959
23154SOL    HW171469   6.988   3.311   1.034
23154SOL    HW271470   7.019   3.202   0.935
23155SOL     OW71471   7.247   3.596   0.612
23155SOL    HW171472   7.233   3.569   0.520
23155SOL    HW271473   7.222   3.514   0.659
23156SOL     OW71474   6.160   2.575   0.262
23156SOL    HW171475   6.173   2.661   0.219
23156SOL    HW271476   6.103   2.595   0.339
23157SOL     OW71477   7.162   3.530   0.329
23157SOL    HW171478   7.258   3.546   0.325
23157SOL    HW271479   7.140   3.529   0.235
23158SOL     OW71480   6.381   2.488   1.463
23158SOL    HW171481   6.369   2.447   1.551
23158SOL    HW271482   6.340   2.421   1.406
23159SOL     OW71483   6.981   2.347   1.666
23159SOL    HW171484   6.992   2.403   1.745
23159SOL    HW271485   7.038   2.271   1.686
23160SOL     OW71486   6.553   2.755   1.584
23160SOL    HW171487   6.591   2.670   1.552
23160SOL    HW271488   6.506   2.785   1.503
23161SOL     OW71489   6.526   2.275   1.253
23161SOL    HW171490   6.430   2.282   1.259
23161SOL    HW271491   6.541   2.223   1.173
23162SOL     OW71492   6.638   2.538   0.413
23162SOL    HW171493   6.649   2.555   0.508
23162SOL    HW271494   6.551   2.494   0.411
23163SOL     OW71495   5.689   2.680   0.797
23163SOL    HW171496   5.762   2.677   0.861
23163SOL    HW271497   5.642   2.761   0.824
23164SOL     OW71498   5.683   3.691   1.557
23164SOL    HW171499   5.691   3.677   1.654
23164SOL    HW271500   5.589   3.707   1.546
23165SOL     OW71501   6.470   2.243   0.216
23165SOL    HW171502   6.518   2.292   0.146
23165SOL    HW271503   6.478   2.151   0.184
23166SOL     OW71504   7.307   2.438   1.837
23166SOL    HW171505   7.267   2.515   1.790
23166SOL    HW271506   7.334   2.383   1.761
23167SOL     OW71507   6.951   3.038   0.572
23167SOL    HW171508   7.030   3.017   0.521
23167SOL    HW271509   6.898   3.090   0.508
23168SOL     OW71510   6.124   2.058   0.895
23168SOL    HW171511   6.137   2.080   0.990
23168SOL    HW271512   6.133   2.145   0.851
23169SOL     OW71513   6.577   3.290   0.487
23169SOL    HW171514   6.540   3.362   0.433
23169SOL    HW271515   6.583   3.330   0.574
23170SOL     OW71516   5.924   3.674   0.857
23170SOL    HW171517   5.975   3.591   0.866
23170SOL    HW271518   5.990   3.741   0.879
23171SOL     OW71519   7.401   2.909   0.886
23171SOL    HW171520   7.344   2.905   0.809
23171SOL    HW271521   7.338   2.899   0.960
23172SOL     OW71522   6.804   3.424   1.486
23172SOL    HW171523   6.783   3.356   1.551
23172SOL    HW271524   6.765   3.387   1.406
23173SOL     OW71525   5.903   2.829   0.277
23173SOL    HW171526   5.990   2.819   0.236
23173SOL    HW271527   5.865   2.741   0.269
23174SOL     OW71528   7.057   2.612   0.705
23174SOL    HW171529   7.034   2.569   0.789
23174SOL    HW271530   7.135   2.664   0.730
23175SOL     OW71531   6.036   3.091   1.685
23175SOL    HW171532   5.989   3.007   1.677
23175SOL    HW271533   5.999   3.125   1.768
23176SOL     OW71534   6.671   3.625   0.211
23176SOL    HW171535   6.622   3.570   0.275
23176SOL    HW271536   6.706   3.559   0.148
23177SOL     OW71537   5.756   2.149   1.497
23177SOL    HW171538   5.684   2.210   1.520
23177SOL    HW271539   5.729   2.066   1.539
23178SOL     OW71540   6.045   3.607   0.303
23178SOL    HW171541   6.082   3.650   0.382
23178SOL    HW271542   6.124   3.591   0.249
23179SOL     OW71543   6.983   1.995   0.446
23179SOL    HW171544   6.987   1.936   0.369
23179SOL    HW271545   7.076   2.005   0.469
23180SOL     OW71546   5.833   3.660   1.233
23180SOL    HW171547   5.885   3.588   1.271
23180SOL    HW271548   5.817   3.630   1.143
23181SOL     OW71549   6.541   3.563   0.900
23181SOL    HW171550   6.630   3.525   0.900
23181SOL    HW271551   6.498   3.512   0.829
23182SOL     OW71552   5.974   2.564   0.472
23182SOL    HW171553   5.987   2.467   0.478
23182SOL    HW271554   5.884   2.570   0.506
23183SOL     OW71555   7.121   2.123   1.721
23183SOL    HW171556   7.121   2.125   1.820
23183SOL    HW271557   7.061   2.050   1.703
23184SOL     OW71558   6.212   1.977   0.088
23184SOL    HW171559   6.284   1.929   0.133
23184SOL    HW271560   6.142   1.910   0.078
23185SOL     OW71561   6.352   2.120   1.730
23185SOL    HW171562   6.433   2.066   1.739
23185SOL    HW271563   6.305   2.102   1.813
23186SOL     OW71564   6.468   3.399   1.193
23186SOL    HW171565   6.463   3.378   1.099
23186SOL    HW271566   6.533   3.335   1.227
23187SOL     OW71567   6.912   2.458   1.426
23187SOL    HW171568   6.949   2.421   1.509
23187SOL    HW271569   6.972   2.532   1.407
23188SOL     OW71570   6.378   3.268   0.931
23188SOL    HW171571   6.468   3.264   0.894
23188SOL    HW271572   6.322   3.265   0.852
23189SOL     OW71573   6.523   2.386   0.904
23189SOL    HW171574   6.508   2.361   0.810
23189SOL    HW271575   6.576   2.311   0.936
23190SOL     OW71576   6.160   1.908   0.498
23190SOL    HW171577   6.080   1.918   0.553
23190SOL    HW271578   6.150   1.987   0.441
23191SOL     OW71579   7.047   3.044   0.052
23191SOL    HW171580   7.078   2.965   0.101
23191SOL    HW271581   6.953   3.047   0.075
23192SOL     OW71582   6.519   2.111   0.468
23192SOL    HW171583   6.500   2.155   0.383
23192SOL    HW271584   6.615   2.129   0.477
23193SOL     OW71585   6.662   2.536   1.474
23193SOL    HW171586   6.612   2.455   1.460
23193SOL    HW271587   6.754   2.507   1.461
23194SOL     OW71588   6.823   3.444   0.794
23194SOL    HW171589   6.831   3.515   0.729
23194SOL    HW271590   6.900   3.459   0.849
23195SOL     OW71591   6.067   3.005   0.746
23195SOL    HW171592   5.994   2.978   0.805
23195SOL    HW271593   6.023   2.995   0.659
23196SOL     OW71594   6.859   3.669   0.637
23196SOL    HW171595   6.901   3.737   0.582
23196SOL    HW271596   6.797   3.721   0.689
23197SOL     OW71597   6.613   2.379   0.034
23197SOL    HW171598   6.572   2.465   0.018
23197SOL    HW271599   6.699   2.403   0.071
23198SOL     OW71600   5.651   2.414   1.399
23198SOL    HW171601   5.745   2.399   1.379
23198SOL    HW271602   5.653   2.496   1.452
23199SOL     OW71603   6.149   2.102   1.168
23199SOL    HW171604   6.197   2.032   1.215
23199SOL    HW271605   6.058   2.088   1.200
23200SOL     OW71606   6.467   2.307   0.653
23200SOL    HW171607   6.424   2.364   0.588
23200SOL    HW271608   6.481   2.226   0.601
23201SOL     OW71609   6.638   1.913   0.761
23201SOL    HW171610   6.574   1.935   0.692
23201SOL    HW271611   6.587   1.855   0.820
23202SOL     OW71612   7.001   3.043   0.880
23202SOL    HW171613   6.956   2.961   0.904
23202SOL    HW271614   6.986   3.047   0.783
23203SOL     OW71615   7.107   2.421   0.970
23203SOL    HW171616   7.022   2.373   0.978
23203SOL    HW271617   7.138   2.422   1.061
23204SOL     OW71618   7.449   2.710   0.355
23204SOL    HW171619   7.487   2.631   0.396
23204SOL    HW271620   7.397   2.670   0.284
23205SOL     OW71621   6.085   3.311   0.138
23205SOL    HW171622   6.010   3.285   0.193
23205SOL    HW271623   6.080   3.247   0.064
23206SOL     OW71624   7.269   3.139   0.648
23206SOL    HW171625   7.364   3.145   0.671
23206SOL    HW271626   7.233   3.225   0.676
23207SOL     OW71627   6.983   2.465   0.092
23207SOL    HW171628   6.931   2.434   0.170
23207SOL    HW271629   7.026   2.384   0.065
23208SOL     OW71630   6.113   2.100   0.323
23208SOL    HW171631   6.121   2.047   0.242
23208SOL    HW271632   6.086   2.186   0.284
23209SOL     OW71633   7.313   3.102   1.570
23209SOL    HW171634   7.399   3.056   1.569
23209SOL    HW271635   7.339   3.192   1.594
23210SOL     OW71636   6.644   3.229   1.335
23210SOL    HW171637   6.568   3.196   1.385
23210SOL    HW271638   6.717   3.175   1.375
23211SOL     OW71639   7.187   3.483   1.644
23211SOL    HW171640   7.191   3.513   1.551
23211SOL    HW271641   7.265   3.425   1.648
23212SOL     OW71642   6.719   3.089   1.099
23212SOL    HW171643   6.652   3.115   1.163
23212SOL    HW271644   6.680   3.115   1.015
23213SOL     OW71645   7.181   2.961   1.072
23213SOL    HW171646   7.193   3.024   1.145
23213SOL    HW271647   7.127   3.012   1.010
23214SOL     OW71648   6.500   1.967   1.413
23214SOL    HW171649   6.528   1.948   1.322
23214SOL    HW271650   6.581   2.007   1.450
23215SOL     OW71651   6.578   2.975   1.740
23215SOL    HW171652   6.484   2.994   1.760
23215SOL    HW271653   6.573   2.898   1.680
23216SOL     OW71654   6.322   2.923   0.376
23216SOL    HW171655   6.305   2.894   0.468
23216SOL    HW271656   6.400   2.870   0.351
23217SOL     OW71657   5.993   2.680   1.277
23217SOL    HW171658   6.074   2.674   1.332
23217SOL    HW271659   5.964   2.587   1.273
23218SOL     OW71660   6.855   2.223   1.295
23218SOL    HW171661   6.867   2.311   1.335
23218SOL    HW271662   6.830   2.245   1.203
23219SOL     OW71663   5.643   3.432   1.349
23219SOL    HW171664   5.603   3.512   1.314
23219SOL    HW271665   5.738   3.451   1.345
23220SOL     OW71666   5.950   2.979   0.512
23220SOL    HW171667   5.939   3.052   0.451
23220SOL    HW271668   5.934   2.903   0.454
23221SOL     OW71669   6.125   2.398   0.871
23221SOL    HW171670   6.156   2.458   0.800
23221SOL    HW271671   6.198   2.401   0.934
23222SOL     OW71672   6.815   3.195   0.394
23222SOL    HW171673   6.861   3.274   0.429
23222SOL    HW271674   6.723   3.213   0.421
23223SOL     OW71675   6.884   3.340   1.166
23223SOL    HW171676   6.945   3.343   1.243
23223SOL    HW271677   6.828   3.263   1.185
23224SOL     OW71678   7.175   2.484   0.493
23224SOL    HW171679   7.122   2.523   0.565
23224SOL    HW271680   7.169   2.553   0.426
23225SOL     OW71681   5.932   3.371   1.330
23225SOL    HW171682   5.911   3.334   1.241
23225SOL    HW271683   6.019   3.411   1.311
23226SOL     OW71684   6.018   2.588   1.623
23226SOL    HW171685   6.078   2.629   1.558
23226SOL    HW271686   6.044   2.495   1.618
23227SOL     OW71687   7.208   2.636   1.693
23227SOL    HW171688   7.119   2.675   1.690
23227SOL    HW271689   7.250   2.678   1.616
23228SOL     OW71690   6.577   1.975   1.753
23228SOL    HW171691   6.636   2.049   1.731
23228SOL    HW271692   6.628   1.900   1.719
23229SOL     OW71693   6.097   1.880   1.743
23229SOL    HW171694   6.052   1.821   1.679
23229SOL    HW271695   6.032   1.952   1.752
23230SOL     OW71696   6.176   2.750   1.054
23230SOL    HW171697   6.208   2.842   1.049
23230SOL    HW271698   6.117   2.751   1.131
23231SOL     OW71699   6.951   2.720   1.009
23231SOL    HW171700   6.860   2.689   0.998
23231SOL    HW271701   6.996   2.639   1.032
23232SOL     OW71702   6.821   2.380   0.286
23232SOL    HW171703   6.827   2.306   0.349
23232SOL    HW271704   6.751   2.433   0.327
23233SOL     OW71705   5.894   2.062   1.251
23233SOL    HW171706   5.841   2.089   1.329
23233SOL    HW271707   5.871   1.967   1.246
23234SOL     OW71708   5.625   3.166   1.286
23234SOL    HW171709   5.665   3.115   1.356
23234SOL    HW271710   5.626   3.257   1.320
23235SOL     OW71711   6.311   2.502   1.071
23235SOL    HW171712   6.387   2.477   1.016
23235SOL    HW271713   6.286   2.592   1.041
23236SOL     OW71714   7.344   2.808   1.858
23236SOL    HW171715   7.304   2.744   1.797
23236SOL    HW271716   7.276   2.810   1.928
23237SOL     OW71717   5.917   1.935   0.612
23237SOL    HW171718   5.885   2.023   0.640
23237SOL    HW271719   5.908   1.885   0.695
23238SOL     OW71720   7.199   2.250   0.344
23238SOL    HW171721   7.216   2.174   0.401
23238SOL    HW271722   7.180   2.321   0.409
23239SOL     OW71723   6.628   2.627   0.997
23239SOL    HW171724   6.606   2.631   1.092
23239SOL    HW271725   6.610   2.533   0.976
23240SOL     OW71726   6.558   3.427   1.701
23240SOL    HW171727   6.553   3.475   1.616
23240SOL    HW271728   6.597   3.341   1.673
23241SOL     OW71729   7.432   3.367   1.600
23241SOL    HW171730   7.467   3.388   1.512
23241SOL    HW271731   7.511   3.378   1.656
23242SOL     OW71732   5.946   2.775   1.788
23242SOL    HW171733   6.023   2.776   1.847
23242SOL    HW271734   5.961   2.693   1.736
23243SOL     OW71735   7.103   2.136   0.110
23243SOL    HW171736   7.042   2.069   0.146
23243SOL    HW271737   7.145   2.171   0.190
23244SOL     OW71738   6.869   2.702   0.026
23244SOL    HW171739   6.918   2.620   0.049
23244SOL    HW271740   6.875   2.699  11.031
23245SOL     OW71741   6.632   3.231   0.850
23245SOL    HW171742   6.645   3.150   0.796
23245SOL    HW271743   6.708   3.287   0.826
23246SOL     OW71744   5.881   2.669   0.998
23246SOL    HW171745   5.976   2.676   0.978
23246SOL    HW271746   5.873   2.575   1.020
23247SOL     OW71747   5.900   2.393   1.011
23247SOL    HW171748   5.873   2.300   0.996
23247SOL    HW271749   5.974   2.402   0.947
23248SOL     OW71750   6.741   2.226   1.699
23248SOL    HW171751   6.695   2.284   1.762
23248SOL    HW271752   6.828   2.270   1.691
23249SOL     OW71753   6.748   2.052   1.485
23249SOL    HW171754   6.750   2.123   1.552
23249SOL    HW271755   6.785   2.099   1.407
23250SOL     OW71756   5.584   3.210   0.218
23250SOL    HW171757   5.496   3.220   0.176
23250SOL    HW271758   5.592   3.112   0.221
23251SOL     OW71759   5.679   3.641   0.944
23251SOL    HW171760   5.651   3.568   0.885
23251SOL    HW271761   5.771   3.657   0.912
23252SOL     OW71762   6.066   3.428   0.919
23252SOL    HW171763   6.141   3.490   0.923
23252SOL    HW271764   6.095   3.366   0.849
23253SOL     OW71765   6.554   2.662   1.265
23253SOL    HW171766   6.610   2.619   1.332
23253SOL    HW271767   6.473   2.609   1.273
23254SOL     OW71768   5.610   2.391   1.111
23254SOL    HW171769   5.690   2.372   1.060
23254SOL    HW271770   5.647   2.403   1.200
23255SOL     OW71771   5.803   2.369   1.712
23255SOL    HW171772   5.860   2.332   1.642
23255SOL    HW271773   5.752   2.436   1.664
23256SOL     OW71774   6.974   2.775   1.657
23256SOL    HW171775   6.998   2.869   1.651
23256SOL    HW271776   6.960   2.753   1.563
23257SOL     OW71777   6.383   2.432   0.384
23257SOL    HW171778   6.406   2.361   0.320
23257SOL    HW271779   6.308   2.476   0.340
23258SOL     OW71780   7.232   2.489   1.215
23258SOL    HW171781   7.200   2.417   1.270
23258SOL    HW271782   7.314   2.454   1.177
23259SOL     OW71783   5.838   3.396   1.714
23259SOL    HW171784   5.815   3.463   1.780
23259SOL    HW271785   5.837   3.315   1.769
23260SOL     OW71786   6.251   2.336   1.272
23260SOL    HW171787   6.217   2.256   1.229
23260SOL    HW271788   6.265   2.398   1.197
23261SOL     OW71789   6.503   3.552   1.463
23261SOL    HW171790   6.498   3.520   1.371
23261SOL    HW271791   6.506   3.648   1.453
23262SOL     OW71792   6.043   2.330   0.195
23262SOL    HW171793   6.103   2.406   0.207
23262SOL    HW271794   5.957   2.375   0.201
23263SOL     OW71795   5.810   3.023   1.481
23263SOL    HW171796   5.770   2.976   1.558
23263SOL    HW271797   5.790   2.961   1.408
23264SOL     OW71798   6.908   2.904   1.222
23264SOL    HW171799   6.928   2.846   1.146
23264SOL    HW271800   6.839   2.961   1.184
23265SOL     OW71801   6.895   2.720   0.311
23265SOL    HW171802   6.816   2.692   0.359
23265SOL    HW271803   6.871   2.701   0.220
23266SOL     OW71804   7.343   3.625   1.127
23266SOL    HW171805   7.410   3.632   1.057
23266SOL    HW271806   7.326   3.528   1.126
23267SOL     OW71807   6.831   3.600   1.107
23267SOL    HW171808   6.914   3.622   1.062
23267SOL    HW271809   6.839   3.504   1.120
23268SOL     OW71810   5.691   3.117   1.033
23268SOL    HW171811   5.654   3.132   1.124
23268SOL    HW271812   5.615   3.076   0.988
23269SOL     OW71813   6.282   3.495   1.748
23269SOL    HW171814   6.244   3.578   1.717
23269SOL    HW271815   6.375   3.501   1.718
23270SOL     OW71816   6.507   1.981   0.145
23270SOL    HW171817   6.547   1.934   0.071
23270SOL    HW271818   6.544   1.932   0.220
23271SOL     OW71819   7.269   2.012   0.495
23271SOL    HW171820   7.347   1.994   0.440
23271SOL    HW271821   7.264   1.931   0.550
23272SOL     OW71822   6.938   3.426   0.484
23272SOL    HW171823   7.013   3.451   0.428
23272SOL    HW271824   6.906   3.513   0.513
23273SOL     OW71825   5.733   3.654   1.822
23273SOL    HW171826   5.691   3.585   1.876
23273SOL    HW271827   5.779   3.704   1.891
23274SOL     OW71828   6.839   2.790   0.630
23274SOL    HW171829   6.917   2.735   0.646
23274SOL    HW271830   6.879   2.873   0.600
23275SOL     OW71831   6.393   3.124   1.428
23275SOL    HW171832   6.363   3.172   1.507
23275SOL    HW271833   6.327   3.151   1.363
23276SOL     OW71834   6.275   3.491   0.167
23276SOL    HW171835   6.285   3.493   0.071
23276SOL    HW271836   6.210   3.418   0.177
23277SOL     OW71837   7.209   3.581   1.392
23277SOL    HW171838   7.255   3.600   1.308
23277SOL    HW271839   7.196   3.671   1.429
23278SOL     OW71840   7.430   2.036   0.966
23278SOL    HW171841   7.444   1.944   0.941
23278SOL    HW271842   7.341   2.057   0.930
23279SOL     OW71843   5.837   2.183   0.708
23279SOL    HW171844   5.751   2.225   0.689
23279SOL    HW271845   5.844   2.192   0.804
23280SOL     OW71846   6.796   3.452   0.039
23280SOL    HW171847   6.802   3.359   0.066
23280SOL    HW271848   6.728   3.448  11.070
23281SOL     OW71849   6.392   2.864   1.377
23281SOL    HW171850   6.444   2.844   1.298
23281SOL    HW271851   6.408   2.958   1.394
23282SOL     OW71852   6.517   2.779   0.280
23282SOL    HW171853   6.576   2.814   0.211
23282SOL    HW271854   6.554   2.691   0.300
23283SOL     OW71855   7.074   3.449  11.082
23283SOL    HW171856   6.990   3.471   0.024
23283SOL    HW271857   7.090   3.524  11.023
23284SOL     OW71858   7.191   3.169   1.266
23284SOL    HW171859   7.234   3.145   1.349
23284SOL    HW271860   7.129   3.238   1.297
23285SOL     OW71861   6.638   2.989   0.731
23285SOL    HW171862   6.564   2.931   0.755
23285SOL    HW271863   6.697   2.929   0.684
23286SOL     OW71864   6.559   2.083   1.005
23286SOL    HW171865   6.607   2.078   0.921
23286SOL    HW271866   6.602   2.013   1.056
23287SOL     OW71867   6.195   3.347   0.480
23287SOL    HW171868   6.248   3.301   0.411
23287SOL    HW271869   6.117   3.376   0.432
23288SOL     OW71870   7.300   2.230   1.378
23288SOL    HW171871   7.365   2.303   1.374
23288SOL    HW271872   7.343   2.161   1.323
23289SOL     OW71873   5.844   3.231   0.271
23289SOL    HW171874   5.749   3.224   0.247
23289SOL    HW271875   5.837   3.258   0.365
23290SOL     OW71876   5.717   2.887   1.702
23290SOL    HW171877   5.641   2.865   1.762
23290SOL    HW271878   5.791   2.844   1.749
23291SOL     OW71879   6.251   2.039   1.492
23291SOL    HW171880   6.340   2.013   1.462
23291SOL    HW271881   6.272   2.080   1.578
23292SOL     OW71882   5.627   2.293   0.054
23292SOL    HW171883   5.582   2.216   0.017
23292SOL    HW271884   5.715   2.280   0.016
23293SOL     OW71885   7.038   2.724   1.387
23293SOL    HW171886   6.995   2.787   1.326
23293SOL    HW271887   7.130   2.753   1.385
23294SOL     OW71888   5.620   2.029   0.331
23294SOL    HW171889   5.626   2.111   0.281
23294SOL    HW271890   5.705   1.987   0.307
23295SOL     OW71891   6.782   3.188   0.118
23295SOL    HW171892   6.687   3.183   0.100
23295SOL    HW271893   6.786   3.172   0.214
23296SOL     OW71894   6.201   2.680   1.436
23296SOL    HW171895   6.260   2.755   1.420
23296SOL    HW271896   6.268   2.609   1.448
23297SOL     OW71897   7.091   3.625   0.947
23297SOL    HW171898   7.131   3.667   0.870
23297SOL    HW271899   7.166   3.615   1.007
23298SOL     OW71900   6.318   2.392   1.694
23298SOL    HW171901   6.358   2.448   1.763
23298SOL    HW271902   6.337   2.301   1.722
23299SOL     OW71903   7.049   3.044   1.620
23299SOL    HW171904   7.040   3.051   1.717
23299SOL    HW271905   7.144   3.063   1.607
23300SOL     OW71906   5.956   3.592   1.561
23300SOL    HW171907   5.874   3.641   1.544
23300SOL    HW271908   5.920   3.510   1.600
23301SOL     OW71909   7.286   2.752   1.231
23301SOL    HW171910   7.254   2.661   1.214
23301SOL    HW271911   7.239   2.805   1.165
23302SOL     OW71912   6.791   2.184   0.477
23302SOL    HW171913   6.854   2.111   0.463
23302SOL    HW271914   6.830   2.231   0.554
23303SOL     OW71915   6.175   2.604   0.672
23303SOL    HW171916   6.210   2.690   0.645
23303SOL    HW271917   6.112   2.584   0.602
23304SOL     OW71918   7.350   2.241   1.640
23304SOL    HW171919   7.321   2.247   1.548
23304SOL    HW271920   7.276   2.191   1.680
23305SOL     OW71921   7.312   2.788   1.496
23305SOL    HW171922   7.332   2.883   1.494
23305SOL    HW271923   7.332   2.760   1.405
23306SOL     OW71924   6.501   3.213   0.051
23306SOL    HW171925   6.420   3.210   0.105
23306SOL    HW271926   6.494   3.298   0.006
23307SOL     OW71927   6.226   3.653   0.904
23307SOL    HW171928   6.205   3.749   0.900
23307SOL    HW271929   6.320   3.650   0.926
23308SOL     OW71930   6.464   2.811   0.845
23308SOL    HW171931   6.511   2.741   0.893
23308SOL    HW271932   6.446   2.874   0.916
23309SOL     OW71933   6.656   2.864   0.069
23309SOL    HW171934   6.662   2.921  11.093
23309SOL    HW271935   6.735   2.808   0.061
23310SOL     OW71936   7.432   3.406   0.823
23310SOL    HW171937   7.336   3.407   0.816
23310SOL    HW271938   7.449   3.345   0.895
23311SOL     OW71939   5.829   3.178   1.864
23311SOL    HW171940   5.754   3.120   1.846
23311SOL    HW271941   5.822   3.186   1.962
23312SOL     OW71942   5.676   3.114   0.654
23312SOL    HW171943   5.687   3.060   0.734
23312SOL    HW271944   5.736   3.071   0.592
23313SOL     OW71945   6.230   3.264   1.597
23313SOL    HW171946   6.182   3.199   1.651
23313SOL    HW271947   6.239   3.341   1.657
23314SOL     OW71948   7.416   2.030   1.229
23314SOL    HW171949   7.409   1.934   1.235
23314SOL    HW271950   7.415   2.041   1.131
23315SOL     OW71951   6.015   2.296   0.519
23315SOL    HW171952   6.060   2.224   0.471
23315SOL    HW271953   5.969   2.249   0.590
23316SOL     OW71954   7.288   3.370   1.099
23316SOL    HW171955   7.207   3.343   1.054
23316SOL    HW271956   7.294   3.301   1.167
23317SOL     OW71957   5.916   2.394   1.289
23317SOL    HW171958   5.996   2.359   1.330
23317SOL    HW271959   5.927   2.368   1.196
23318SOL     OW71960   6.398   3.451   0.680
23318SOL    HW171961   6.393   3.453   0.584
23318SOL    HW271962   6.311   3.414   0.702
23319SOL     OW71963   7.079   2.082   1.107
23319SOL    HW171964   7.055   2.009   1.164
23319SOL    HW271965   6.997   2.135   1.108
23320SOL     OW71966   6.605   1.853   1.169
23320SOL    HW171967   6.550   1.785   1.128
23320SOL    HW271968   6.695   1.817   1.157
23321SOL     OW71969   6.361   3.200   0.323
23321SOL    HW171970   6.333   3.107   0.332
23321SOL    HW271971   6.441   3.201   0.378
23322SOL     OW71972   6.188   3.428   1.260
23322SOL    HW171973   6.192   3.513   1.307
23322SOL    HW271974   6.281   3.421   1.231
23323SOL     OW71975   6.928   1.907   0.169
23323SOL    HW171976   6.956   1.856   0.092
23323SOL    HW271977   6.839   1.869   0.187
23324SOL     OW71978   6.900   2.339   0.690
23324SOL    HW171979   6.834   2.411   0.684
23324SOL    HW271980   6.881   2.306   0.781
23325SOL     OW71981   7.186   2.066   0.862
23325SOL    HW171982   7.140   2.073   0.947
23325SOL    HW271983   7.146   2.137   0.811
23326SOL     OW71984   5.640   2.947   0.266
23326SOL    HW171985   5.736   2.937   0.275
23326SOL    HW271986   5.609   2.859   0.295
23327SOL     OW71987   6.477   3.502   0.362
23327SOL    HW171988   6.403   3.490   0.299
23327SOL    HW271989   6.453   3.588   0.404
23328SOL     OW71990   5.827   2.507   1.992
23328SOL    HW171991   5.738   2.480   2.017
23328SOL    HW271992   5.838   2.471   1.902
23329SOL     OW71993   5.833   2.129   2.853
23329SOL    HW171994   5.849   2.111   2.948
23329SOL    HW271995   5.741   2.096   2.844
23330SOL     OW71996   5.589   2.252   2.494
23330SOL    HW171997   5.508   2.269   2.546
23330SOL    HW271998   5.564   2.173   2.444
23331SOL     OW71999   6.146   3.155   3.059
23331SOL    HW172000   6.061   3.138   3.013
23331SOL    HW272001   6.146   3.252   3.062
23332SOL     OW72002   7.130   3.390   2.574
23332SOL    HW172003   7.094   3.359   2.660
23332SOL    HW272004   7.056   3.380   2.512
23333SOL     OW72005   6.704   2.548   2.563
23333SOL    HW172006   6.743   2.635   2.540
23333SOL    HW272007   6.679   2.563   2.655
23334SOL     OW72008   7.361   2.464   2.095
23334SOL    HW172009   7.340   2.454   1.999
23334SOL    HW272010   7.312   2.390   2.133
23335SOL     OW72011   6.350   3.041   2.917
23335SOL    HW172012   6.273   3.082   2.960
23335SOL    HW272013   6.370   3.106   2.848
23336SOL     OW72014   6.459   2.623   3.675
23336SOL    HW172015   6.439   2.681   3.750
23336SOL    HW272016   6.488   2.685   3.606
23337SOL     OW72017   6.275   2.890   2.523
23337SOL    HW172018   6.336   2.860   2.593
23337SOL    HW272019   6.208   2.941   2.573
23338SOL     OW72020   6.286   3.014   3.666
23338SOL    HW172021   6.326   3.097   3.701
23338SOL    HW272022   6.194   3.043   3.649
23339SOL     OW72023   5.904   3.292   2.931
23339SOL    HW172024   5.831   3.248   2.885
23339SOL    HW272025   5.947   3.345   2.860
23340SOL     OW72026   7.054   3.363   3.229
23340SOL    HW172027   7.112   3.442   3.236
23340SOL    HW272028   6.989   3.380   3.300
23341SOL     OW72029   6.020   2.272   3.367
23341SOL    HW172030   6.098   2.215   3.376
23341SOL    HW272031   5.946   2.208   3.369
23342SOL     OW72032   7.207   2.312   2.600
23342SOL    HW172033   7.140   2.345   2.539
23342SOL    HW272034   7.200   2.375   2.673
23343SOL     OW72035   5.806   3.568   2.327
23343SOL    HW172036   5.829   3.646   2.380
23343SOL    HW272037   5.868   3.577   2.253
23344SOL     OW72038   6.705   3.213   3.514
23344SOL    HW172039   6.755   3.225   3.596
23344SOL    HW272040   6.667   3.124   3.531
23345SOL     OW72041   5.842   3.289   2.390
23345SOL    HW172042   5.841   3.386   2.390
23345SOL    HW272043   5.769   3.268   2.449
23346SOL     OW72044   5.861   2.945   2.768
23346SOL    HW172045   5.858   2.867   2.826
23346SOL    HW272046   5.801   3.006   2.815
23347SOL     OW72047   6.185   3.646   3.259
23347SOL    HW172048   6.114   3.625   3.322
23347SOL    HW272049   6.217   3.731   3.295
23348SOL     OW72050   6.159   2.853   1.982
23348SOL    HW172051   6.212   2.894   1.911
23348SOL    HW272052   6.205   2.887   2.061
23349SOL     OW72053   7.202   1.962   3.360
23349SOL    HW172054   7.211   2.038   3.301
23349SOL    HW272055   7.203   2.004   3.447
23350SOL     OW72056   5.699   2.513   2.424
23350SOL    HW172057   5.674   2.420   2.438
23350SOL    HW272058   5.689   2.553   2.513
23351SOL     OW72059   7.428   3.601   2.215
23351SOL    HW172060   7.504   3.581   2.274
23351SOL    HW272061   7.448   3.693   2.190
23352SOL     OW72062   5.650   3.456   1.978
23352SOL    HW172063   5.633   3.364   2.003
23352SOL    HW272064   5.613   3.504   2.054
23353SOL     OW72065   7.268   2.775   2.504
23353SOL    HW172066   7.344   2.736   2.459
23353SOL    HW272067   7.236   2.837   2.437
23354SOL     OW72068   7.232   2.978   2.307
23354SOL    HW172069   7.322   2.974   2.272
23354SOL    HW272070   7.240   3.049   2.373
23355SOL     OW72071   5.707   2.616   3.452
23355SOL    HW172072   5.803   2.628   3.456
23355SOL    HW272073   5.676   2.698   3.495
23356SOL     OW72074   6.177   3.273   2.614
23356SOL    HW172075   6.138   3.183   2.627
23356SOL    HW272076   6.167   3.282   2.517
23357SOL     OW72077   6.871   3.085   3.279
23357SOL    HW172078   6.903   3.009   3.228
23357SOL    HW272079   6.930   3.082   3.357
23358SOL     OW72080   6.413   1.855   2.369
23358SOL    HW172081   6.447   1.946   2.358
23358SOL    HW272082   6.317   1.870   2.363
23359SOL     OW72083   5.754   2.838   3.121
23359SOL    HW172084   5.845   2.811   3.101
23359SOL    HW272085   5.701   2.768   3.080
23360SOL     OW72086   7.124   2.822   2.049
23360SOL    HW172087   7.041   2.785   2.084
23360SOL    HW272088   7.168   2.853   2.130
23361SOL     OW72089   6.743   3.669   3.453
23361SOL    HW172090   6.769   3.733   3.386
23361SOL    HW272091   6.781   3.585   3.419
23362SOL     OW72092   5.942   2.096   3.669
23362SOL    HW172093   6.002   2.164   3.702
23362SOL    HW272094   5.858   2.125   3.706
23363SOL     OW72095   7.048   3.285   2.817
23363SOL    HW172096   6.987   3.306   2.890
23363SOL    HW272097   7.021   3.194   2.794
23364SOL     OW72098   7.243   3.605   2.468
23364SOL    HW172099   7.251   3.563   2.382
23364SOL    HW272100   7.211   3.531   2.523
23365SOL     OW72101   6.172   2.579   2.124
23365SOL    HW172102   6.173   2.668   2.087
23365SOL    HW272103   6.106   2.584   2.195
23366SOL     OW72104   6.857   2.190   2.776
23366SOL    HW172105   6.768   2.158   2.802
23366SOL    HW272106   6.915   2.151   2.845
23367SOL     OW72107   7.157   3.514   2.168
23367SOL    HW172108   7.252   3.536   2.175
23367SOL    HW272109   7.149   3.508   2.071
23368SOL     OW72110   6.381   2.507   3.306
23368SOL    HW172111   6.369   2.470   3.396
23368SOL    HW272112   6.344   2.434   3.252
23369SOL     OW72113   6.990   2.337   3.537
23369SOL    HW172114   6.999   2.389   3.620
23369SOL    HW272115   7.045   2.259   3.557
23370SOL     OW72116   6.567   2.751   3.440
23370SOL    HW172117   6.614   2.666   3.425
23370SOL    HW272118   6.523   2.762   3.355
23371SOL     OW72119   6.553   2.279   3.096
23371SOL    HW172120   6.460   2.290   3.122
23371SOL    HW272121   6.548   2.222   3.019
23372SOL     OW72122   6.629   2.544   2.268
23372SOL    HW172123   6.639   2.559   2.364
23372SOL    HW272124   6.542   2.498   2.265
23373SOL     OW72125   5.674   2.681   2.652
23373SOL    HW172126   5.750   2.668   2.711
23373SOL    HW272127   5.641   2.766   2.683
23374SOL     OW72128   5.685   3.690   3.412
23374SOL    HW172129   5.703   3.677   3.508
23374SOL    HW272130   5.590   3.705   3.411
23375SOL     OW72131   6.473   2.245   2.057
23375SOL    HW172132   6.521   2.302   1.994
23375SOL    HW272133   6.495   2.158   2.023
23376SOL     OW72134   7.307   2.456   3.706
23376SOL    HW172135   7.260   2.528   3.659
23376SOL    HW272136   7.331   2.399   3.631
23377SOL     OW72137   6.942   3.007   2.428
23377SOL    HW172138   7.017   3.000   2.368
23377SOL    HW272139   6.885   3.069   2.380
23378SOL     OW72140   6.133   2.060   2.757
23378SOL    HW172141   6.148   2.073   2.854
23378SOL    HW272142   6.116   2.151   2.728
23379SOL     OW72143   6.572   3.308   2.353
23379SOL    HW172144   6.524   3.365   2.291
23379SOL    HW272145   6.588   3.367   2.428
23380SOL     OW72146   5.927   3.678   2.720
23380SOL    HW172147   5.981   3.597   2.730
23380SOL    HW272148   5.993   3.748   2.732
23381SOL     OW72149   7.404   2.914   2.718
23381SOL    HW172150   7.345   2.893   2.644
23381SOL    HW272151   7.346   2.900   2.795
23382SOL     OW72152   6.819   3.418   3.357
23382SOL    HW172153   6.795   3.358   3.429
23382SOL    HW272154   6.778   3.376   3.281
23383SOL     OW72155   5.891   2.803   2.118
23383SOL    HW172156   5.975   2.824   2.075
23383SOL    HW272157   5.865   2.721   2.073
23384SOL     OW72158   7.060   2.617   2.580
23384SOL    HW172159   7.061   2.588   2.672
23384SOL    HW272160   7.140   2.672   2.574
23385SOL     OW72161   6.053   3.133   3.593
23385SOL    HW172162   6.007   3.147   3.507
23385SOL    HW272163   5.977   3.137   3.654
23386SOL     OW72164   6.675   3.639   2.106
23386SOL    HW172165   6.604   3.586   2.147
23386SOL    HW272166   6.694   3.586   2.026
23387SOL     OW72167   5.758   2.155   3.366
23387SOL    HW172168   5.686   2.206   3.404
23387SOL    HW272169   5.742   2.066   3.401
23388SOL     OW72170   7.206   3.223   1.954
23388SOL    HW172171   7.164   3.305   1.924
23388SOL    HW272172   7.150   3.153   1.917
23389SOL     OW72173   6.044   3.609   2.174
23389SOL    HW172174   6.090   3.650   2.249
23389SOL    HW272175   6.116   3.569   2.123
23390SOL     OW72176   6.983   1.988   2.306
23390SOL    HW172177   6.974   1.943   2.221
23390SOL    HW272178   7.079   1.991   2.318
23391SOL     OW72179   5.818   3.652   3.081
23391SOL    HW172180   5.875   3.587   3.124
23391SOL    HW272181   5.809   3.618   2.991
23392SOL     OW72182   6.544   3.557   2.751
23392SOL    HW172183   6.630   3.512   2.753
23392SOL    HW272184   6.496   3.506   2.682
23393SOL     OW72185   5.988   2.551   2.330
23393SOL    HW172186   6.008   2.459   2.355
23393SOL    HW272187   5.892   2.553   2.346
23394SOL     OW72188   7.134   2.110   3.588
23394SOL    HW172189   7.135   2.115   3.687
23394SOL    HW272190   7.072   2.036   3.576
23395SOL     OW72191   6.213   1.986   1.957
23395SOL    HW172192   6.289   1.929   1.974
23395SOL    HW272193   6.170   1.942   1.881
23396SOL     OW72194   6.362   2.134   3.592
23396SOL    HW172195   6.441   2.076   3.604
23396SOL    HW272196   6.310   2.112   3.671
23397SOL     OW72197   6.463   3.376   3.051
23397SOL    HW172198   6.468   3.370   2.954
23397SOL    HW272199   6.535   3.318   3.081
23398SOL     OW72200   6.923   2.457   3.290
23398SOL    HW172201   6.961   2.423   3.373
23398SOL    HW272202   6.973   2.539   3.275
23399SOL     OW72203   6.397   3.272   2.780
23399SOL    HW172204   6.483   3.255   2.737
23399SOL    HW272205   6.335   3.276   2.705
23400SOL     OW72206   6.523   2.395   2.777
23400SOL    HW172207   6.498   2.388   2.682
23400SOL    HW272208   6.550   2.304   2.794
23401SOL     OW72209   6.143   1.907   2.363
23401SOL    HW172210   6.061   1.914   2.416
23401SOL    HW272211   6.135   1.987   2.306
23402SOL     OW72212   7.031   3.033   1.884
23402SOL    HW172213   7.059   2.959   1.940
23402SOL    HW272214   6.945   3.057   1.922
23403SOL     OW72215   5.867   1.910   2.045
23403SOL    HW172216   5.923   1.979   2.007
23403SOL    HW272217   5.933   1.853   2.089
23404SOL     OW72218   6.515   2.111   2.348
23404SOL    HW172219   6.496   2.162   2.267
23404SOL    HW272220   6.611   2.128   2.357
23405SOL     OW72221   6.673   2.529   3.335
23405SOL    HW172222   6.618   2.449   3.331
23405SOL    HW272223   6.764   2.495   3.327
23406SOL     OW72224   6.809   3.452   2.648
23406SOL    HW172225   6.822   3.506   2.569
23406SOL    HW272226   6.889   3.471   2.699
23407SOL     OW72227   6.059   3.037   2.614
23407SOL    HW172228   5.981   3.006   2.666
23407SOL    HW272229   6.028   3.015   2.523
23408SOL     OW72230   6.851   3.684   2.444
23408SOL    HW172231   6.900   3.746   2.387
23408SOL    HW272232   6.824   3.742   2.516
23409SOL     OW72233   6.640   2.398   1.892
23409SOL    HW172234   6.598   2.482   1.868
23409SOL    HW272235   6.713   2.423   1.951
23410SOL     OW72236   5.643   2.429   3.261
23410SOL    HW172237   5.736   2.412   3.237
23410SOL    HW272238   5.652   2.507   3.320
23411SOL     OW72239   6.161   2.074   3.021
23411SOL    HW172240   6.207   2.020   3.086
23411SOL    HW272241   6.070   2.076   3.057
23412SOL     OW72242   6.465   2.333   2.523
23412SOL    HW172243   6.422   2.381   2.451
23412SOL    HW272244   6.470   2.243   2.487
23413SOL     OW72245   6.608   1.928   2.635
23413SOL    HW172246   6.562   1.912   2.551
23413SOL    HW272247   6.586   1.849   2.688
23414SOL     OW72248   6.999   3.032   2.747
23414SOL    HW172249   6.955   2.949   2.768
23414SOL    HW272250   7.000   3.030   2.650
23415SOL     OW72251   7.058   2.457   2.840
23415SOL    HW172252   7.013   2.372   2.851
23415SOL    HW272253   7.124   2.457   2.912
23416SOL     OW72254   7.425   2.681   2.255
23416SOL    HW172255   7.481   2.626   2.314
23416SOL    HW272256   7.412   2.619   2.181
23417SOL     OW72257   6.067   3.277   1.984
23417SOL    HW172258   5.999   3.261   2.052
23417SOL    HW272259   6.014   3.275   1.904
23418SOL     OW72260   7.269   3.149   2.517
23418SOL    HW172261   7.367   3.150   2.515
23418SOL    HW272262   7.244   3.239   2.543
23419SOL     OW72263   6.993   2.451   1.933
23419SOL    HW172264   6.945   2.422   2.013
23419SOL    HW272265   7.080   2.411   1.947
23420SOL     OW72266   6.110   2.100   2.180
23420SOL    HW172267   6.152   2.064   2.100
23420SOL    HW272268   6.070   2.182   2.144
23421SOL     OW72269   7.317   3.095   3.432
23421SOL    HW172270   7.403   3.053   3.446
23421SOL    HW272271   7.338   3.188   3.452
23422SOL     OW72272   6.621   3.180   3.240
23422SOL    HW172273   6.615   3.208   3.333
23422SOL    HW272274   6.711   3.141   3.240
23423SOL     OW72275   7.191   3.478   3.508
23423SOL    HW172276   7.193   3.507   3.416
23423SOL    HW272277   7.273   3.427   3.516
23424SOL     OW72278   6.707   3.098   2.963
23424SOL    HW172279   6.626   3.095   3.015
23424SOL    HW272280   6.676   3.134   2.878
23425SOL     OW72281   7.192   2.953   2.939
23425SOL    HW172282   7.199   3.020   3.009
23425SOL    HW272283   7.142   3.002   2.872
23426SOL     OW72284   6.510   1.961   3.254
23426SOL    HW172285   6.540   1.936   3.165
23426SOL    HW272286   6.590   2.005   3.290
23427SOL     OW72287   6.585   2.986   3.597
23427SOL    HW172288   6.494   3.006   3.626
23427SOL    HW272289   6.575   2.904   3.546
23428SOL     OW72290   6.307   2.929   2.198
23428SOL    HW172291   6.292   2.906   2.291
23428SOL    HW272292   6.382   2.871   2.174
23429SOL     OW72293   6.003   2.670   3.117
23429SOL    HW172294   6.071   2.673   3.188
23429SOL    HW272295   5.964   2.582   3.130
23430SOL     OW72296   6.875   2.249   3.124
23430SOL    HW172297   6.893   2.325   3.183
23430SOL    HW272298   6.785   2.267   3.095
23431SOL     OW72299   5.654   3.428   3.197
23431SOL    HW172300   5.653   3.522   3.174
23431SOL    HW272301   5.749   3.407   3.193
23432SOL     OW72302   5.973   2.968   2.370
23432SOL    HW172303   5.992   3.028   2.297
23432SOL    HW272304   5.948   2.887   2.325
23433SOL     OW72305   6.125   2.409   2.706
23433SOL    HW172306   6.154   2.470   2.636
23433SOL    HW272307   6.191   2.424   2.775
23434SOL     OW72308   6.799   3.199   2.251
23434SOL    HW172309   6.851   3.270   2.291
23434SOL    HW272310   6.710   3.218   2.284
23435SOL     OW72311   6.879   3.326   3.031
23435SOL    HW172312   6.943   3.325   3.106
23435SOL    HW272313   6.836   3.239   3.037
23436SOL     OW72314   7.161   2.470   2.331
23436SOL    HW172315   7.115   2.529   2.392
23436SOL    HW272316   7.199   2.531   2.266
23437SOL     OW72317   5.918   3.383   3.175
23437SOL    HW172318   5.917   3.346   3.084
23437SOL    HW272319   6.012   3.407   3.184
23438SOL     OW72320   6.019   2.584   3.484
23438SOL    HW172321   6.075   2.631   3.420
23438SOL    HW272322   6.054   2.494   3.480
23439SOL     OW72323   7.207   2.644   3.543
23439SOL    HW172324   7.116   2.676   3.534
23439SOL    HW272325   7.251   2.693   3.470
23440SOL     OW72326   6.580   1.983   3.617
23440SOL    HW172327   6.651   2.048   3.610
23440SOL    HW272328   6.626   1.905   3.581
23441SOL     OW72329   6.115   1.876   3.598
23441SOL    HW172330   6.058   1.819   3.543
23441SOL    HW272331   6.053   1.949   3.619
23442SOL     OW72332   6.167   2.748   2.911
23442SOL    HW172333   6.196   2.839   2.920
23442SOL    HW272334   6.112   2.733   2.991
23443SOL     OW72335   6.932   2.718   2.888
23443SOL    HW172336   6.848   2.681   2.855
23443SOL    HW272337   6.988   2.639   2.888
23444SOL     OW72338   6.812   2.382   2.134
23444SOL    HW172339   6.812   2.305   2.193
23444SOL    HW272340   6.748   2.440   2.179
23445SOL     OW72341   5.896   2.070   3.112
23445SOL    HW172342   5.842   2.094   3.190
23445SOL    HW272343   5.877   1.975   3.104
23446SOL     OW72344   5.612   3.163   3.142
23446SOL    HW172345   5.642   3.109   3.217
23446SOL    HW272346   5.626   3.254   3.173
23447SOL     OW72347   6.300   2.503   2.908
23447SOL    HW172348   6.383   2.490   2.860
23447SOL    HW272349   6.272   2.594   2.887
23448SOL     OW72350   7.345   2.817   3.707
23448SOL    HW172351   7.299   2.754   3.649
23448SOL    HW272352   7.282   2.822   3.782
23449SOL     OW72353   5.890   1.935   2.465
23449SOL    HW172354   5.867   2.029   2.481
23449SOL    HW272355   5.879   1.899   2.554
23450SOL     OW72356   7.183   2.237   2.206
23450SOL    HW172357   7.214   2.164   2.263
23450SOL    HW272358   7.173   2.311   2.269
23451SOL     OW72359   6.655   2.614   2.844
23451SOL    HW172360   6.641   2.622   2.939
23451SOL    HW272361   6.618   2.524   2.827
23452SOL     OW72362   6.553   3.427   3.558
23452SOL    HW172363   6.558   3.482   3.477
23452SOL    HW272364   6.604   3.347   3.534
23453SOL     OW72365   7.436   3.351   3.463
23453SOL    HW172366   7.455   3.381   3.372
23453SOL    HW272367   7.518   3.375   3.510
23454SOL     OW72368   5.937   2.765   3.662
23454SOL    HW172369   6.015   2.796   3.710
23454SOL    HW272370   5.970   2.687   3.613
23455SOL     OW72371   7.092   2.116   1.979
23455SOL    HW172372   7.020   2.058   2.011
23455SOL    HW272373   7.129   2.153   2.062
23456SOL     OW72374   6.872   2.690   1.889
23456SOL    HW172375   6.921   2.608   1.907
23456SOL    HW272376   6.902   2.711   1.798
23457SOL     OW72377   6.652   3.223   2.707
23457SOL    HW172378   6.671   3.147   2.648
23457SOL    HW272379   6.716   3.291   2.679
23458SOL     OW72380   5.862   2.672   2.856
23458SOL    HW172381   5.951   2.685   2.821
23458SOL    HW272382   5.869   2.582   2.891
23459SOL     OW72383   5.915   2.400   2.866
23459SOL    HW172384   5.883   2.310   2.847
23459SOL    HW272385   5.982   2.412   2.795
23460SOL     OW72386   6.745   2.233   3.554
23460SOL    HW172387   6.699   2.295   3.615
23460SOL    HW272388   6.834   2.271   3.554
23461SOL     OW72389   6.752   2.069   3.331
23461SOL    HW172390   6.750   2.129   3.408
23461SOL    HW272391   6.803   2.120   3.267
23462SOL     OW72392   5.586   3.187   2.064
23462SOL    HW172393   5.495   3.202   2.028
23462SOL    HW272394   5.581   3.094   2.094
23463SOL     OW72395   5.678   3.644   2.803
23463SOL    HW172396   5.652   3.568   2.747
23463SOL    HW272397   5.769   3.664   2.770
23464SOL     OW72398   6.063   3.450   2.779
23464SOL    HW172399   6.136   3.514   2.795
23464SOL    HW272400   6.107   3.386   2.719
23465SOL     OW72401   6.553   2.670   3.129
23465SOL    HW172402   6.612   2.623   3.192
23465SOL    HW272403   6.474   2.613   3.131
23466SOL     OW72404   5.622   2.389   2.968
23466SOL    HW172405   5.705   2.385   2.919
23466SOL    HW272406   5.653   2.396   3.059
23467SOL     OW72407   5.797   2.375   3.570
23467SOL    HW172408   5.855   2.336   3.502
23467SOL    HW272409   5.754   2.448   3.522
23468SOL     OW72410   6.962   2.772   3.506
23468SOL    HW172411   6.988   2.866   3.509
23468SOL    HW272412   6.965   2.753   3.411
23469SOL     OW72413   6.388   2.437   2.230
23469SOL    HW172414   6.400   2.368   2.162
23469SOL    HW272415   6.316   2.491   2.192
23470SOL     OW72416   7.226   2.483   3.064
23470SOL    HW172417   7.198   2.421   3.133
23470SOL    HW272418   7.310   2.444   3.033
23471SOL     OW72419   5.839   3.400   3.575
23471SOL    HW172420   5.823   3.471   3.639
23471SOL    HW272421   5.848   3.323   3.634
23472SOL     OW72422   6.279   2.336   3.122
23472SOL    HW172423   6.228   2.261   3.090
23472SOL    HW272424   6.272   2.401   3.048
23473SOL     OW72425   6.515   3.556   3.322
23473SOL    HW172426   6.502   3.542   3.228
23473SOL    HW272427   6.521   3.653   3.330
23474SOL     OW72428   6.028   2.330   2.063
23474SOL    HW172429   6.093   2.401   2.071
23474SOL    HW272430   5.945   2.381   2.062
23475SOL     OW72431   5.702   2.994   3.336
23475SOL    HW172432   5.718   2.942   3.417
23475SOL    HW272433   5.715   2.929   3.264
23476SOL     OW72434   6.908   2.895   3.092
23476SOL    HW172435   6.922   2.836   3.015
23476SOL    HW272436   6.849   2.962   3.054
23477SOL     OW72437   6.887   2.728   2.158
23477SOL    HW172438   6.812   2.688   2.203
23477SOL    HW272439   6.865   2.718   2.063
23478SOL     OW72440   7.337   3.615   2.989
23478SOL    HW172441   7.413   3.634   2.930
23478SOL    HW272442   7.323   3.519   2.973
23479SOL     OW72443   6.824   3.590   2.979
23479SOL    HW172444   6.914   3.613   2.950
23479SOL    HW272445   6.833   3.493   2.994
23480SOL     OW72446   5.687   3.112   2.890
23480SOL    HW172447   5.650   3.131   2.979
23480SOL    HW272448   5.615   3.061   2.848
23481SOL     OW72449   6.284   3.502   3.585
23481SOL    HW172450   6.244   3.591   3.581
23481SOL    HW272451   6.379   3.519   3.578
23482SOL     OW72452   7.264   1.996   2.352
23482SOL    HW172453   7.343   1.982   2.297
23482SOL    HW272454   7.264   1.917   2.410
23483SOL     OW72455   6.953   3.437   2.349
23483SOL    HW172456   7.016   3.454   2.276
23483SOL    HW272457   6.912   3.525   2.362
23484SOL     OW72458   5.745   3.655   3.678
23484SOL    HW172459   5.698   3.587   3.730
23484SOL    HW272460   5.793   3.702   3.749
23485SOL     OW72461   6.833   2.783   2.542
23485SOL    HW172462   6.913   2.729   2.551
23485SOL    HW272463   6.869   2.860   2.494
23486SOL     OW72464   6.242   3.479   2.018
23486SOL    HW172465   6.263   3.486   1.923
23486SOL    HW272466   6.189   3.397   2.018
23487SOL     OW72467   7.204   3.580   3.244
23487SOL    HW172468   7.255   3.603   3.165
23487SOL    HW272469   7.184   3.668   3.281
23488SOL     OW72470   7.424   2.034   2.843
23488SOL    HW172471   7.447   1.948   2.803
23488SOL    HW272472   7.338   2.056   2.799
23489SOL     OW72473   5.843   2.179   2.566
23489SOL    HW172474   5.757   2.220   2.546
23489SOL    HW272475   5.845   2.179   2.663
23490SOL     OW72476   6.777   3.495   1.888
23490SOL    HW172477   6.789   3.400   1.909
23490SOL    HW272478   6.726   3.492   1.805
23491SOL     OW72479   6.420   2.923   3.232
23491SOL    HW172480   6.447   2.869   3.156
23491SOL    HW272481   6.505   2.949   3.270
23492SOL     OW72482   6.505   2.775   2.128
23492SOL    HW172483   6.582   2.812   2.080
23492SOL    HW272484   6.542   2.697   2.171
23493SOL     OW72485   7.129   3.508   1.902
23493SOL    HW172486   7.033   3.499   1.894
23493SOL    HW272487   7.158   3.506   1.808
23494SOL     OW72488   5.935   3.144   3.354
23494SOL    HW172489   5.913   3.218   3.296
23494SOL    HW272490   5.854   3.090   3.349
23495SOL     OW72491   7.191   3.167   3.128
23495SOL    HW172492   7.240   3.143   3.207
23495SOL    HW272493   7.132   3.238   3.163
23496SOL     OW72494   6.632   2.976   2.584
23496SOL    HW172495   6.555   2.928   2.619
23496SOL    HW272496   6.693   2.903   2.562
23497SOL     OW72497   6.616   2.091   2.851
23497SOL    HW172498   6.607   2.046   2.764
23497SOL    HW272499   6.618   2.014   2.911
23498SOL     OW72500   6.195   3.337   2.349
23498SOL    HW172501   6.247   3.297   2.278
23498SOL    HW272502   6.122   3.378   2.302
23499SOL     OW72503   7.302   2.229   3.246
23499SOL    HW172504   7.363   2.304   3.233
23499SOL    HW272505   7.345   2.159   3.192
23500SOL     OW72506   5.834   3.242   2.131
23500SOL    HW172507   5.737   3.230   2.121
23500SOL    HW272508   5.841   3.257   2.228
23501SOL     OW72509   5.714   2.878   3.575
23501SOL    HW172510   5.642   2.858   3.639
23501SOL    HW272511   5.794   2.844   3.621
23502SOL     OW72512   6.268   2.052   3.340
23502SOL    HW172513   6.358   2.028   3.309
23502SOL    HW272514   6.287   2.084   3.430
23503SOL     OW72515   5.685   2.206   1.898
23503SOL    HW172516   5.592   2.198   1.874
23503SOL    HW272517   5.716   2.272   1.834
23504SOL     OW72518   7.035   2.719   3.251
23504SOL    HW172519   6.990   2.781   3.188
23504SOL    HW272520   7.128   2.741   3.236
23505SOL     OW72521   5.633   2.027   2.153
23505SOL    HW172522   5.629   2.115   2.113
23505SOL    HW272523   5.713   1.992   2.112
23506SOL     OW72524   6.789   3.217   1.973
23506SOL    HW172525   6.720   3.150   1.977
23506SOL    HW272526   6.815   3.221   2.068
23507SOL     OW72527   6.198   2.694   3.297
23507SOL    HW172528   6.255   2.770   3.308
23507SOL    HW272529   6.264   2.621   3.299
23508SOL     OW72530   7.090   3.626   2.831
23508SOL    HW172531   7.125   3.674   2.756
23508SOL    HW272532   7.168   3.620   2.889
23509SOL     OW72533   6.322   2.404   3.537
23509SOL    HW172534   6.353   2.460   3.611
23509SOL    HW272535   6.341   2.313   3.567
23510SOL     OW72536   7.049   3.041   3.489
23510SOL    HW172537   7.035   3.050   3.586
23510SOL    HW272538   7.142   3.065   3.480
23511SOL     OW72539   5.951   3.590   3.417
23511SOL    HW172540   5.868   3.637   3.401
23511SOL    HW272541   5.919   3.508   3.459
23512SOL     OW72542   7.292   2.745   3.102
23512SOL    HW172543   7.270   2.655   3.071
23512SOL    HW272544   7.251   2.802   3.034
23513SOL     OW72545   6.784   2.185   2.339
23513SOL    HW172546   6.855   2.120   2.330
23513SOL    HW272547   6.817   2.242   2.412
23514SOL     OW72548   6.178   2.615   2.527
23514SOL    HW172549   6.208   2.706   2.515
23514SOL    HW272550   6.113   2.604   2.456
23515SOL     OW72551   7.356   2.250   3.503
23515SOL    HW172552   7.328   2.259   3.410
23515SOL    HW272553   7.283   2.198   3.540
23516SOL     OW72554   7.316   2.810   3.365
23516SOL    HW172555   7.313   2.907   3.367
23516SOL    HW272556   7.332   2.792   3.271
23517SOL     OW72557   6.422   3.228   1.886
23517SOL    HW172558   6.420   3.235   1.983
23517SOL    HW272559   6.469   3.308   1.857
23518SOL     OW72560   6.226   3.665   2.768
23518SOL    HW172561   6.208   3.761   2.764
23518SOL    HW272562   6.322   3.662   2.777
23519SOL     OW72563   6.463   2.804   2.718
23519SOL    HW172564   6.516   2.731   2.753
23519SOL    HW272565   6.452   2.861   2.796
23520SOL     OW72566   6.694   2.882   1.962
23520SOL    HW172567   6.657   2.918   1.879
23520SOL    HW272568   6.757   2.815   1.927
23521SOL     OW72569   7.444   3.419   2.705
23521SOL    HW172570   7.349   3.407   2.694
23521SOL    HW272571   7.467   3.346   2.764
23522SOL     OW72572   5.831   3.185   3.729
23522SOL    HW172573   5.762   3.125   3.700
23522SOL    HW272574   5.807   3.200   3.822
23523SOL     OW72575   5.661   3.111   2.514
23523SOL    HW172576   5.683   3.063   2.595
23523SOL    HW272577   5.727   3.078   2.452
23524SOL     OW72578   6.249   3.256   3.453
23524SOL    HW172579   6.191   3.210   3.516
23524SOL    HW272580   6.256   3.343   3.496
23525SOL     OW72581   7.408   2.029   3.104
23525SOL    HW172582   7.405   1.932   3.103
23525SOL    HW272583   7.415   2.048   3.008
23526SOL     OW72584   6.021   2.294   2.397
23526SOL    HW172585   6.065   2.224   2.346
23526SOL    HW272586   5.979   2.247   2.472
23527SOL     OW72587   7.283   3.358   2.948
23527SOL    HW172588   7.202   3.332   2.902
23527SOL    HW272589   7.283   3.295   3.022
23528SOL     OW72590   5.905   2.398   3.145
23528SOL    HW172591   5.970   2.355   3.204
23528SOL    HW272592   5.932   2.368   3.057
23529SOL     OW72593   6.403   3.461   2.536
23529SOL    HW172594   6.396   3.483   2.442
23529SOL    HW272595   6.323   3.408   2.549
23530SOL     OW72596   7.022   2.097   2.960
23530SOL    HW172597   7.049   2.016   3.003
23530SOL    HW272598   6.976   2.146   3.031
23531SOL     OW72599   6.605   1.857   3.015
23531SOL    HW172600   6.554   1.779   2.990
23531SOL    HW272601   6.697   1.821   3.014
23532SOL     OW72602   6.379   3.200   2.175
23532SOL    HW172603   6.349   3.108   2.173
23532SOL    HW272604   6.448   3.196   2.242
23533SOL     OW72605   6.192   3.409   3.134
23533SOL    HW172606   6.187   3.495   3.182
23533SOL    HW272607   6.283   3.414   3.101
23534SOL     OW72608   6.902   1.911   2.031
23534SOL    HW172609   6.910   1.839   1.967
23534SOL    HW272610   6.815   1.891   2.071
23535SOL     OW72611   6.869   2.338   2.548
23535SOL    HW172612   6.806   2.413   2.550
23535SOL    HW272613   6.855   2.294   2.634
23536SOL     OW72614   7.186   2.071   2.726
23536SOL    HW172615   7.110   2.080   2.785
23536SOL    HW272616   7.183   2.154   2.674
23537SOL     OW72617   5.632   2.937   2.179
23537SOL    HW172618   5.726   2.926   2.156
23537SOL    HW272619   5.607   2.843   2.197
23538SOL     OW72620   6.454   3.505   2.188
23538SOL    HW172621   6.375   3.490   2.131
23538SOL    HW272622   6.431   3.585   2.240
23539SOL     OW72623   5.829   2.499   3.857
23539SOL    HW172624   5.739   2.487   3.889
23539SOL    HW272625   5.826   2.474   3.764
23540SOL     OW72626   5.807   2.156   4.728
23540SOL    HW172627   5.833   2.121   4.816
23540SOL    HW272628   5.722   2.111   4.716
23541SOL     OW72629   5.581   2.257   4.344
23541SOL    HW172630   5.499   2.279   4.393
23541SOL    HW272631   5.562   2.168   4.314
23542SOL     OW72632   7.115   3.391   4.424
23542SOL    HW172633   7.085   3.391   4.517
23542SOL    HW272634   7.029   3.405   4.379
23543SOL     OW72635   6.712   2.537   4.438
23543SOL    HW172636   6.748   2.624   4.411
23543SOL    HW272637   6.670   2.559   4.523
23544SOL     OW72638   7.364   2.478   3.966
23544SOL    HW172639   7.344   2.477   3.870
23544SOL    HW272640   7.313   2.403   3.998
23545SOL     OW72641   6.464   2.625   5.541
23545SOL    HW172642   6.438   2.696   5.601
23545SOL    HW272643   6.493   2.675   5.461
23546SOL     OW72644   6.281   2.883   4.362
23546SOL    HW172645   6.348   2.874   4.432
23546SOL    HW272646   6.209   2.928   4.410
23547SOL     OW72647   5.918   3.301   4.753
23547SOL    HW172648   5.830   3.264   4.732
23547SOL    HW272649   5.961   3.304   4.667
23548SOL     OW72650   7.057   3.347   5.097
23548SOL    HW172651   7.105   3.431   5.109
23548SOL    HW272652   6.982   3.359   5.159
23549SOL     OW72653   6.004   2.251   5.264
23549SOL    HW172654   6.081   2.196   5.245
23549SOL    HW272655   5.929   2.195   5.237
23550SOL     OW72656   7.204   2.308   4.465
23550SOL    HW172657   7.146   2.333   4.391
23550SOL    HW272658   7.172   2.369   4.534
23551SOL     OW72659   5.789   3.598   4.178
23551SOL    HW172660   5.818   3.669   4.239
23551SOL    HW272661   5.870   3.584   4.126
23552SOL     OW72662   6.727   3.194   5.397
23552SOL    HW172663   6.746   3.204   5.491
23552SOL    HW272664   6.673   3.114   5.396
23553SOL     OW72665   5.828   3.291   4.259
23553SOL    HW172666   5.839   3.387   4.258
23553SOL    HW272667   5.759   3.278   4.325
23554SOL     OW72668   5.844   2.936   4.612
23554SOL    HW172669   5.856   2.868   4.679
23554SOL    HW272670   5.800   3.007   4.664
23555SOL     OW72671   6.157   2.859   3.848
23555SOL    HW172672   6.215   2.901   3.781
23555SOL    HW272673   6.198   2.892   3.930
23556SOL     OW72674   7.203   1.968   5.226
23556SOL    HW172675   7.196   2.042   5.165
23556SOL    HW272676   7.204   2.013   5.312
23557SOL     OW72677   5.698   2.508   4.284
23557SOL    HW172678   5.664   2.419   4.306
23557SOL    HW272679   5.700   2.553   4.371
23558SOL     OW72680   7.432   3.599   4.071
23558SOL    HW172681   7.404   3.599   4.165
23558SOL    HW272682   7.451   3.694   4.056
23559SOL     OW72683   5.639   3.447   3.816
23559SOL    HW172684   5.636   3.355   3.846
23559SOL    HW272685   5.605   3.494   3.894
23560SOL     OW72686   7.277   2.781   4.343
23560SOL    HW172687   7.350   2.749   4.287
23560SOL    HW272688   7.236   2.847   4.286
23561SOL     OW72689   7.227   2.988   4.165
23561SOL    HW172690   7.319   2.983   4.136
23561SOL    HW272691   7.232   3.059   4.233
23562SOL     OW72692   5.715   2.625   5.313
23562SOL    HW172693   5.809   2.643   5.300
23562SOL    HW272694   5.688   2.708   5.357
23563SOL     OW72695   6.133   3.251   4.461
23563SOL    HW172696   6.122   3.155   4.470
23563SOL    HW272697   6.147   3.262   4.365
23564SOL     OW72698   6.872   3.104   5.138
23564SOL    HW172699   6.916   3.034   5.087
23564SOL    HW272700   6.918   3.099   5.223
23565SOL     OW72701   6.411   1.861   4.200
23565SOL    HW172702   6.445   1.952   4.211
23565SOL    HW272703   6.318   1.871   4.222
23566SOL     OW72704   5.774   2.836   4.998
23566SOL    HW172705   5.862   2.799   4.978
23566SOL    HW272706   5.714   2.781   4.946
23567SOL     OW72707   7.149   2.801   3.907
23567SOL    HW172708   7.063   2.764   3.933
23567SOL    HW272709   7.175   2.850   3.986
23568SOL     OW72710   6.755   3.658   5.333
23568SOL    HW172711   6.780   3.736   5.280
23568SOL    HW272712   6.797   3.585   5.285
23569SOL     OW72713   5.939   2.104   5.511
23569SOL    HW172714   5.987   2.185   5.491
23569SOL    HW272715   5.859   2.138   5.554
23570SOL     OW72716   7.062   3.273   4.692
23570SOL    HW172717   6.992   3.294   4.757
23570SOL    HW272718   7.028   3.192   4.650
23571SOL     OW72719   7.248   3.590   4.305
23571SOL    HW172720   7.176   3.612   4.243
23571SOL    HW272721   7.209   3.513   4.351
23572SOL     OW72722   6.178   2.575   3.984
23572SOL    HW172723   6.180   2.666   3.952
23572SOL    HW272724   6.105   2.576   4.049
23573SOL     OW72725   6.850   2.227   4.669
23573SOL    HW172726   6.762   2.185   4.678
23573SOL    HW272727   6.907   2.166   4.720
23574SOL     OW72728   7.159   3.493   4.032
23574SOL    HW172729   7.250   3.527   4.037
23574SOL    HW272730   7.137   3.510   3.939
23575SOL     OW72731   6.392   2.492   5.184
23575SOL    HW172732   6.374   2.453   5.272
23575SOL    HW272733   6.348   2.428   5.125
23576SOL     OW72734   6.982   2.337   5.402
23576SOL    HW172735   6.991   2.393   5.482
23576SOL    HW272736   7.043   2.264   5.422
23577SOL     OW72737   6.543   2.746   5.300
23577SOL    HW172738   6.582   2.664   5.262
23577SOL    HW272739   6.511   2.792   5.220
23578SOL     OW72740   6.549   2.276   4.954
23578SOL    HW172741   6.458   2.306   4.969
23578SOL    HW272742   6.540   2.222   4.874
23579SOL     OW72743   6.620   2.558   4.127
23579SOL    HW172744   6.635   2.573   4.222
23579SOL    HW272745   6.537   2.505   4.128
23580SOL     OW72746   5.695   2.671   4.504
23580SOL    HW172747   5.771   2.672   4.565
23580SOL    HW272748   5.649   2.752   4.531
23581SOL     OW72749   6.465   2.225   3.934
23581SOL    HW172750   6.491   2.277   3.857
23581SOL    HW272751   6.512   2.143   3.920
23582SOL     OW72752   7.307   2.452   5.565
23582SOL    HW172753   7.268   2.527   5.513
23582SOL    HW272754   7.337   2.396   5.492
23583SOL     OW72755   6.943   2.997   4.289
23583SOL    HW172756   7.018   2.999   4.227
23583SOL    HW272757   6.887   3.066   4.252
23584SOL     OW72758   6.138   2.086   4.618
23584SOL    HW172759   6.146   2.089   4.716
23584SOL    HW272760   6.135   2.180   4.593
23585SOL     OW72761   5.938   3.671   4.582
23585SOL    HW172762   6.014   3.611   4.577
23585SOL    HW272763   5.984   3.757   4.583
23586SOL     OW72764   7.398   2.900   4.579
23586SOL    HW172765   7.346   2.888   4.499
23586SOL    HW272766   7.330   2.904   4.648
23587SOL     OW72767   6.834   3.388   5.228
23587SOL    HW172768   6.807   3.326   5.299
23587SOL    HW272769   6.786   3.352   5.153
23588SOL     OW72770   5.893   2.837   3.985
23588SOL    HW172771   5.970   2.852   3.929
23588SOL    HW272772   5.868   2.746   3.963
23589SOL     OW72773   7.079   2.601   4.436
23589SOL    HW172774   7.068   2.584   4.531
23589SOL    HW272775   7.154   2.662   4.435
23590SOL     OW72776   6.642   3.626   3.907
23590SOL    HW172777   6.630   3.549   3.964
23590SOL    HW272778   6.729   3.662   3.932
23591SOL     OW72779   5.753   2.146   5.219
23591SOL    HW172780   5.689   2.206   5.262
23591SOL    HW272781   5.735   2.062   5.262
23592SOL     OW72782   7.211   3.230   3.809
23592SOL    HW172783   7.172   3.319   3.806
23592SOL    HW272784   7.139   3.173   3.777
23593SOL     OW72785   6.040   3.603   4.054
23593SOL    HW172786   6.093   3.660   4.113
23593SOL    HW272787   6.108   3.566   3.995
23594SOL     OW72788   6.986   2.005   4.168
23594SOL    HW172789   6.965   1.939   4.100
23594SOL    HW272790   7.079   1.987   4.186
23595SOL     OW72791   5.795   3.548   4.923
23595SOL    HW172792   5.881   3.584   4.951
23595SOL    HW272793   5.780   3.591   4.838
23596SOL     OW72794   5.968   2.533   4.184
23596SOL    HW172795   5.995   2.445   4.216
23596SOL    HW272796   5.875   2.537   4.212
23597SOL     OW72797   7.127   2.116   5.454
23597SOL    HW172798   7.124   2.121   5.553
23597SOL    HW272799   7.064   2.044   5.438
23598SOL     OW72800   6.213   1.996   3.814
23598SOL    HW172801   6.286   1.943   3.848
23598SOL    HW272802   6.177   1.938   3.743
23599SOL     OW72803   6.360   2.117   5.461
23599SOL    HW172804   6.439   2.060   5.472
23599SOL    HW272805   6.309   2.100   5.541
23600SOL     OW72806   6.922   2.444   5.160
23600SOL    HW172807   6.955   2.420   5.248
23600SOL    HW272808   6.966   2.530   5.142
23601SOL     OW72809   6.525   2.370   4.641
23601SOL    HW172810   6.497   2.367   4.546
23601SOL    HW272811   6.558   2.280   4.653
23602SOL     OW72812   6.131   1.904   4.225
23602SOL    HW172813   6.056   1.921   4.284
23602SOL    HW272814   6.127   1.982   4.165
23603SOL     OW72815   7.018   3.038   3.753
23603SOL    HW172816   7.045   2.970   3.817
23603SOL    HW272817   6.937   3.075   3.792
23604SOL     OW72818   5.871   1.916   3.916
23604SOL    HW172819   5.936   1.984   3.896
23604SOL    HW272820   5.927   1.848   3.957
23605SOL     OW72821   6.509   2.119   4.221
23605SOL    HW172822   6.495   2.168   4.139
23605SOL    HW272823   6.606   2.123   4.230
23606SOL     OW72824   6.675   2.533   5.194
23606SOL    HW172825   6.615   2.457   5.194
23606SOL    HW272826   6.764   2.493   5.192
23607SOL     OW72827   6.858   3.467   4.469
23607SOL    HW172828   6.765   3.458   4.445
23607SOL    HW272829   6.852   3.451   4.563
23608SOL     OW72830   6.057   2.994   4.462
23608SOL    HW172831   5.981   2.975   4.521
23608SOL    HW272832   6.014   2.988   4.374
23609SOL     OW72833   6.650   2.418   3.729
23609SOL    HW172834   6.594   2.497   3.725
23609SOL    HW272835   6.709   2.434   3.804
23610SOL     OW72836   5.647   2.434   5.126
23610SOL    HW172837   5.740   2.426   5.098
23610SOL    HW272838   5.651   2.511   5.186
23611SOL     OW72839   6.158   2.089   4.882
23611SOL    HW172840   6.204   2.017   4.928
23611SOL    HW272841   6.067   2.077   4.915
23612SOL     OW72842   6.462   2.339   4.389
23612SOL    HW172843   6.411   2.381   4.319
23612SOL    HW272844   6.473   2.249   4.354
23613SOL     OW72845   6.544   1.938   4.499
23613SOL    HW172846   6.560   1.906   4.409
23613SOL    HW272847   6.560   1.857   4.551
23614SOL     OW72848   7.007   3.025   4.600
23614SOL    HW172849   6.939   2.960   4.626
23614SOL    HW272850   6.999   3.025   4.504
23615SOL     OW72851   7.075   2.427   4.689
23615SOL    HW172852   7.007   2.360   4.705
23615SOL    HW272853   7.124   2.430   4.773
23616SOL     OW72854   7.432   2.690   4.118
23616SOL    HW172855   7.484   2.630   4.176
23616SOL    HW272856   7.407   2.627   4.048
23617SOL     OW72857   6.082   3.292   3.857
23617SOL    HW172858   6.006   3.285   3.918
23617SOL    HW272859   6.054   3.237   3.784
23618SOL     OW72860   7.262   3.158   4.379
23618SOL    HW172861   7.358   3.176   4.385
23618SOL    HW272862   7.220   3.242   4.404
23619SOL     OW72863   7.005   2.442   3.791
23619SOL    HW172864   6.949   2.418   3.867
23619SOL    HW272865   7.093   2.421   3.824
23620SOL     OW72866   6.103   2.099   4.038
23620SOL    HW172867   6.151   2.071   3.957
23620SOL    HW272868   6.073   2.188   4.011
23621SOL     OW72869   7.312   3.093   5.279
23621SOL    HW172870   7.404   3.062   5.268
23621SOL    HW272871   7.329   3.185   5.306
23622SOL     OW72872   7.198   3.457   5.368
23622SOL    HW172873   7.205   3.517   5.291
23622SOL    HW272874   7.283   3.411   5.364
23623SOL     OW72875   6.690   3.065   4.844
23623SOL    HW172876   6.628   3.096   4.913
23623SOL    HW272877   6.654   3.110   4.766
23624SOL     OW72878   7.187   2.945   4.787
23624SOL    HW172879   7.190   3.012   4.859
23624SOL    HW272880   7.125   2.988   4.725
23625SOL     OW72881   6.499   1.972   5.104
23625SOL    HW172882   6.533   1.939   5.019
23625SOL    HW272883   6.579   2.012   5.142
23626SOL     OW72884   6.576   2.973   5.473
23626SOL    HW172885   6.487   2.998   5.508
23626SOL    HW272886   6.556   2.905   5.406
23627SOL     OW72887   6.299   2.920   4.069
23627SOL    HW172888   6.293   2.904   4.165
23627SOL    HW272889   6.375   2.864   4.043
23628SOL     OW72890   6.005   2.673   4.986
23628SOL    HW172891   6.077   2.673   5.052
23628SOL    HW272892   5.959   2.589   5.003
23629SOL     OW72893   6.870   2.247   4.985
23629SOL    HW172894   6.887   2.321   5.046
23629SOL    HW272895   6.780   2.266   4.953
23630SOL     OW72896   5.622   3.449   5.090
23630SOL    HW172897   5.553   3.496   5.039
23630SOL    HW272898   5.701   3.483   5.042
23631SOL     OW72899   5.943   2.975   4.222
23631SOL    HW172900   5.993   3.042   4.172
23631SOL    HW272901   5.929   2.905   4.156
23632SOL     OW72902   6.128   2.402   4.576
23632SOL    HW172903   6.155   2.462   4.503
23632SOL    HW272904   6.191   2.429   4.645
23633SOL     OW72905   6.803   3.196   4.134
23633SOL    HW172906   6.846   3.282   4.150
23633SOL    HW272907   6.728   3.201   4.194
23634SOL     OW72908   6.882   3.318   4.880
23634SOL    HW172909   6.931   3.319   4.965
23634SOL    HW272910   6.816   3.249   4.894
23635SOL     OW72911   7.182   2.478   4.206
23635SOL    HW172912   7.138   2.534   4.273
23635SOL    HW272913   7.200   2.541   4.136
23636SOL     OW72914   6.019   2.604   5.352
23636SOL    HW172915   6.077   2.661   5.299
23636SOL    HW272916   6.054   2.516   5.333
23637SOL     OW72917   7.213   2.636   5.405
23637SOL    HW172918   7.122   2.671   5.401
23637SOL    HW272919   7.254   2.678   5.326
23638SOL     OW72920   6.590   1.974   5.485
23638SOL    HW172921   6.647   2.048   5.463
23638SOL    HW272922   6.636   1.900   5.442
23639SOL     OW72923   6.090   1.874   5.488
23639SOL    HW172924   6.052   1.821   5.416
23639SOL    HW272925   6.032   1.953   5.486
23640SOL     OW72926   6.189   2.761   4.787
23640SOL    HW172927   6.208   2.856   4.788
23640SOL    HW272928   6.126   2.749   4.859
23641SOL     OW72929   6.950   2.726   4.709
23641SOL    HW172930   6.860   2.693   4.693
23641SOL    HW272931   6.993   2.649   4.748
23642SOL     OW72932   6.805   2.391   3.988
23642SOL    HW172933   6.807   2.315   4.050
23642SOL    HW272934   6.744   2.451   4.035
23643SOL     OW72935   5.895   2.059   4.971
23643SOL    HW172936   5.842   2.085   5.048
23643SOL    HW272937   5.873   1.964   4.962
23644SOL     OW72938   5.606   3.192   4.997
23644SOL    HW172939   5.645   3.123   5.054
23644SOL    HW272940   5.635   3.273   5.042
23645SOL     OW72941   6.289   2.505   4.770
23645SOL    HW172942   6.376   2.495   4.728
23645SOL    HW272943   6.271   2.602   4.763
23646SOL     OW72944   7.352   2.820   5.569
23646SOL    HW172945   7.311   2.763   5.502
23646SOL    HW272946   7.278   2.839   5.628
23647SOL     OW72947   5.882   1.929   4.331
23647SOL    HW172948   5.856   2.019   4.359
23647SOL    HW272949   5.887   1.884   4.417
23648SOL     OW72950   7.183   2.243   4.076
23648SOL    HW172951   7.200   2.171   4.138
23648SOL    HW272952   7.175   2.320   4.135
23649SOL     OW72953   6.631   2.612   4.703
23649SOL    HW172954   6.620   2.626   4.799
23649SOL    HW272955   6.604   2.519   4.694
23650SOL     OW72956   6.578   3.431   5.401
23650SOL    HW172957   6.554   3.489   5.328
23650SOL    HW272958   6.606   3.348   5.360
23651SOL     OW72959   7.443   3.345   5.322
23651SOL    HW172960   7.471   3.376   5.234
23651SOL    HW272961   7.514   3.382   5.378
23652SOL     OW72962   5.940   2.779   5.546
23652SOL    HW172963   6.025   2.798   5.589
23652SOL    HW272964   5.966   2.714   5.478
23653SOL     OW72965   7.101   2.112   3.852
23653SOL    HW172966   7.022   2.063   3.879
23653SOL    HW272967   7.132   2.153   3.935
23654SOL     OW72968   6.870   2.696   3.743
23654SOL    HW172969   6.926   2.617   3.753
23654SOL    HW272970   6.896   2.728   3.654
23655SOL     OW72971   5.880   2.671   4.719
23655SOL    HW172972   5.975   2.686   4.706
23655SOL    HW272973   5.879   2.576   4.742
23656SOL     OW72974   5.916   2.404   4.734
23656SOL    HW172975   5.887   2.312   4.719
23656SOL    HW272976   5.987   2.412   4.667
23657SOL     OW72977   6.743   2.223   5.418
23657SOL    HW172978   6.696   2.279   5.483
23657SOL    HW272979   6.830   2.267   5.417
23658SOL     OW72980   6.750   2.071   5.194
23658SOL    HW172981   6.755   2.128   5.273
23658SOL    HW272982   6.800   2.122   5.128
23659SOL     OW72983   5.600   3.189   3.910
23659SOL    HW172984   5.508   3.206   3.881
23659SOL    HW272985   5.591   3.100   3.951
23660SOL     OW72986   5.693   3.633   4.667
23660SOL    HW172987   5.664   3.566   4.604
23660SOL    HW272988   5.782   3.654   4.633
23661SOL     OW72989   6.579   2.641   4.960
23661SOL    HW172990   6.625   2.603   5.037
23661SOL    HW272991   6.488   2.643   4.991
23662SOL     OW72992   5.628   2.389   4.833
23662SOL    HW172993   5.714   2.387   4.789
23662SOL    HW272994   5.652   2.406   4.925
23663SOL     OW72995   5.791   2.373   5.419
23663SOL    HW172996   5.864   2.352   5.358
23663SOL    HW272997   5.754   2.454   5.380
23664SOL     OW72998   6.976   2.761   5.376
23664SOL    HW172999   6.998   2.857   5.377
23664SOL    HW273000   6.964   2.745   5.281
23665SOL     OW73001   6.388   2.429   4.101
23665SOL    HW173002   6.400   2.358   4.036
23665SOL    HW273003   6.318   2.485   4.062
23666SOL     OW73004   7.225   2.474   4.919
23666SOL    HW173005   7.210   2.411   4.990
23666SOL    HW273006   7.311   2.443   4.883
23667SOL     OW73007   6.277   2.338   4.985
23667SOL    HW173008   6.234   2.260   4.947
23667SOL    HW273009   6.270   2.403   4.912
23668SOL     OW73010   6.034   2.333   3.921
23668SOL    HW173011   6.105   2.399   3.926
23668SOL    HW273012   5.956   2.393   3.918
23669SOL     OW73013   5.684   3.003   5.187
23669SOL    HW173014   5.707   2.958   5.271
23669SOL    HW273015   5.722   2.941   5.121
23670SOL     OW73016   6.916   2.888   4.959
23670SOL    HW173017   6.937   2.848   4.873
23670SOL    HW273018   6.842   2.946   4.935
23671SOL     OW73019   6.888   2.720   4.012
23671SOL    HW173020   6.802   2.701   4.052
23671SOL    HW273021   6.869   2.715   3.917
23672SOL     OW73022   7.342   3.614   4.857
23672SOL    HW173023   7.424   3.628   4.805
23672SOL    HW273024   7.325   3.519   4.840
23673SOL     OW73025   6.879   3.586   4.826
23673SOL    HW173026   6.954   3.603   4.767
23673SOL    HW273027   6.877   3.490   4.834
23674SOL     OW73028   5.695   3.111   4.751
23674SOL    HW173029   5.661   3.143   4.837
23674SOL    HW273030   5.617   3.065   4.716
23675SOL     OW73031   7.270   1.991   4.228
23675SOL    HW173032   7.339   1.980   4.161
23675SOL    HW273033   7.265   1.902   4.270
23676SOL     OW73034   6.938   3.435   4.178
23676SOL    HW173035   7.013   3.457   4.120
23676SOL    HW273036   6.918   3.523   4.215
23677SOL     OW73037   6.852   2.756   4.380
23677SOL    HW173038   6.935   2.710   4.401
23677SOL    HW273039   6.884   2.839   4.340
23678SOL     OW73040   6.242   3.494   3.855
23678SOL    HW173041   6.266   3.490   3.761
23678SOL    HW273042   6.185   3.414   3.863
23679SOL     OW73043   7.212   3.593   5.117
23679SOL    HW173044   7.253   3.619   5.033
23679SOL    HW273045   7.188   3.681   5.153
23680SOL     OW73046   7.429   2.032   4.698
23680SOL    HW173047   7.447   1.944   4.662
23680SOL    HW273048   7.342   2.056   4.658
23681SOL     OW73049   5.824   2.169   4.430
23681SOL    HW173050   5.739   2.212   4.406
23681SOL    HW273051   5.828   2.181   4.526
23682SOL     OW73052   6.802   3.447   3.711
23682SOL    HW173053   6.774   3.383   3.778
23682SOL    HW273054   6.720   3.493   3.688
23683SOL     OW73055   6.427   2.893   5.093
23683SOL    HW173056   6.421   2.900   4.997
23683SOL    HW273057   6.450   2.985   5.115
23684SOL     OW73058   6.487   2.760   3.970
23684SOL    HW173059   6.564   2.806   3.933
23684SOL    HW273060   6.527   2.699   4.034
23685SOL     OW73061   7.123   3.497   3.765
23685SOL    HW173062   7.026   3.502   3.763
23685SOL    HW273063   7.144   3.495   3.669
23686SOL     OW73064   5.928   3.103   5.239
23686SOL    HW173065   5.959   3.173   5.179
23686SOL    HW273066   5.836   3.090   5.213
23687SOL     OW73067   7.190   3.150   4.995
23687SOL    HW173068   7.235   3.135   5.079
23687SOL    HW273069   7.131   3.225   5.021
23688SOL     OW73070   6.605   2.922   4.371
23688SOL    HW173071   6.547   2.906   4.447
23688SOL    HW273072   6.687   2.879   4.397
23689SOL     OW73073   6.612   2.097   4.708
23689SOL    HW173074   6.587   2.052   4.624
23689SOL    HW273075   6.616   2.021   4.769
23690SOL     OW73076   6.163   3.319   4.188
23690SOL    HW173077   6.256   3.314   4.166
23690SOL    HW273078   6.147   3.413   4.195
23691SOL     OW73079   7.296   2.234   5.102
23691SOL    HW173080   7.361   2.306   5.099
23691SOL    HW273081   7.340   2.165   5.048
23692SOL     OW73082   5.843   3.264   3.998
23692SOL    HW173083   5.748   3.245   3.988
23692SOL    HW273084   5.851   3.270   4.096
23693SOL     OW73085   5.711   2.867   5.424
23693SOL    HW173086   5.643   2.862   5.495
23693SOL    HW273087   5.794   2.857   5.474
23694SOL     OW73088   6.251   2.052   5.214
23694SOL    HW173089   6.336   2.034   5.169
23694SOL    HW273090   6.280   2.086   5.301
23695SOL     OW73091   5.686   2.205   3.753
23695SOL    HW173092   5.593   2.199   3.730
23695SOL    HW273093   5.717   2.278   3.696
23696SOL     OW73094   7.027   2.704   5.110
23696SOL    HW173095   6.977   2.772   5.060
23696SOL    HW273096   7.118   2.729   5.085
23697SOL     OW73097   5.633   2.028   4.020
23697SOL    HW173098   5.632   2.116   3.982
23697SOL    HW273099   5.720   1.995   3.989
23698SOL     OW73100   6.783   3.185   3.843
23698SOL    HW173101   6.692   3.154   3.847
23698SOL    HW273102   6.801   3.205   3.937
23699SOL     OW73103   6.209   2.697   5.157
23699SOL    HW173104   6.262   2.778   5.157
23699SOL    HW273105   6.278   2.629   5.167
23700SOL     OW73106   7.118   3.599   4.690
23700SOL    HW173107   7.128   3.669   4.624
23700SOL    HW273108   7.181   3.625   4.759
23701SOL     OW73109   6.328   2.408   5.425
23701SOL    HW173110   6.351   2.483   5.483
23701SOL    HW273111   6.358   2.330   5.474
23702SOL     OW73112   7.053   3.024   5.345
23702SOL    HW173113   7.041   3.051   5.438
23702SOL    HW273114   7.142   3.058   5.324
23703SOL     OW73115   7.265   2.742   4.958
23703SOL    HW173116   7.249   2.653   4.921
23703SOL    HW273117   7.243   2.803   4.884
23704SOL     OW73118   6.792   2.198   4.184
23704SOL    HW173119   6.858   2.126   4.181
23704SOL    HW273120   6.822   2.247   4.263
23705SOL     OW73121   6.180   2.596   4.380
23705SOL    HW173122   6.225   2.680   4.364
23705SOL    HW273123   6.102   2.603   4.323
23706SOL     OW73124   7.353   2.237   5.364
23706SOL    HW173125   7.324   2.245   5.271
23706SOL    HW273126   7.278   2.191   5.404
23707SOL     OW73127   7.328   2.790   5.220
23707SOL    HW173128   7.332   2.887   5.225
23707SOL    HW273129   7.322   2.775   5.124
23708SOL     OW73130   6.427   3.230   3.748
23708SOL    HW173131   6.413   3.237   3.844
23708SOL    HW273132   6.459   3.319   3.724
23709SOL     OW73133   6.457   2.820   4.578
23709SOL    HW173134   6.504   2.747   4.621
23709SOL    HW273135   6.443   2.882   4.651
23710SOL     OW73136   6.683   2.869   3.821
23710SOL    HW173137   6.662   2.924   3.744
23710SOL    HW273138   6.746   2.804   3.783
23711SOL     OW73139   7.408   3.395   4.555
23711SOL    HW173140   7.330   3.415   4.503
23711SOL    HW273141   7.372   3.375   4.643
23712SOL     OW73142   5.659   3.091   4.372
23712SOL    HW173143   5.694   3.062   4.457
23712SOL    HW273144   5.734   3.079   4.313
23713SOL     OW73145   7.402   2.029   4.958
23713SOL    HW173146   7.408   1.933   4.962
23713SOL    HW273147   7.413   2.042   4.861
23714SOL     OW73148   6.026   2.277   4.265
23714SOL    HW173149   6.064   2.209   4.209
23714SOL    HW273150   5.972   2.229   4.330
23715SOL     OW73151   7.291   3.354   4.811
23715SOL    HW173152   7.203   3.338   4.770
23715SOL    HW273153   7.292   3.286   4.880
23716SOL     OW73154   5.903   2.403   5.012
23716SOL    HW173155   5.972   2.356   5.060
23716SOL    HW273156   5.922   2.381   4.919
23717SOL     OW73157   7.022   2.101   4.825
23717SOL    HW173158   7.053   2.026   4.875
23717SOL    HW273159   6.973   2.154   4.892
23718SOL     OW73160   6.604   1.866   4.870
23718SOL    HW173161   6.550   1.795   4.832
23718SOL    HW273162   6.691   1.821   4.878
23719SOL     OW73163   6.388   3.179   4.024
23719SOL    HW173164   6.359   3.091   4.055
23719SOL    HW273165   6.434   3.215   4.101
23720SOL     OW73166   6.899   1.904   3.875
23720SOL    HW173167   6.915   1.816   3.839
23720SOL    HW273168   6.809   1.893   3.911
23721SOL     OW73169   6.875   2.326   4.408
23721SOL    HW173170   6.819   2.406   4.408
23721SOL    HW273171   6.863   2.294   4.499
23722SOL     OW73172   7.183   2.074   4.595
23722SOL    HW173173   7.112   2.090   4.660
23722SOL    HW273174   7.183   2.156   4.542
23723SOL     OW73175   5.617   2.937   4.029
23723SOL    HW173176   5.713   2.939   4.018
23723SOL    HW273177   5.602   2.843   4.049
23724SOL     OW73178   6.444   3.461   4.023
23724SOL    HW173179   6.364   3.477   3.969
23724SOL    HW273180   6.433   3.514   4.102
23725SOL     OW73181   5.821   2.482   5.707
23725SOL    HW173182   5.734   2.479   5.748
23725SOL    HW273183   5.803   2.478   5.612
23726SOL     OW73184   5.810   2.148   6.597
23726SOL    HW173185   5.836   2.118   6.687
23726SOL    HW273186   5.725   2.100   6.585
23727SOL     OW73187   5.590   2.272   6.219
23727SOL    HW173188   5.507   2.295   6.265
23727SOL    HW273189   5.567   2.189   6.178
23728SOL     OW73190   6.161   3.154   6.779
23728SOL    HW173191   6.078   3.159   6.730
23728SOL    HW273192   6.167   3.245   6.816
23729SOL     OW73193   7.137   3.389   6.292
23729SOL    HW173194   7.096   3.374   6.379
23729SOL    HW273195   7.061   3.390   6.230
23730SOL     OW73196   6.708   2.551   6.293
23730SOL    HW173197   6.750   2.635   6.267
23730SOL    HW273198   6.669   2.576   6.379
23731SOL     OW73199   7.361   2.460   5.823
23731SOL    HW173200   7.341   2.464   5.727
23731SOL    HW273201   7.306   2.386   5.851
23732SOL     OW73202   6.334   3.035   6.614
23732SOL    HW173203   6.270   3.077   6.674
23732SOL    HW273204   6.362   3.112   6.561
23733SOL     OW73205   6.469   2.609   7.388
23733SOL    HW173206   6.442   2.674   7.455
23733SOL    HW273207   6.487   2.665   7.309
23734SOL     OW73208   6.277   2.889   6.236
23734SOL    HW173209   6.336   2.867   6.311
23734SOL    HW273210   6.204   2.935   6.281
23735SOL     OW73211   6.269   3.017   7.393
23735SOL    HW173212   6.319   3.100   7.408
23735SOL    HW273213   6.184   3.049   7.356
23736SOL     OW73214   5.906   3.283   6.678
23736SOL    HW173215   5.833   3.245   6.626
23736SOL    HW273216   5.960   3.331   6.611
23737SOL     OW73217   7.054   3.362   6.967
23737SOL    HW173218   7.110   3.442   6.977
23737SOL    HW273219   6.992   3.373   7.041
23738SOL     OW73220   6.013   2.259   7.104
23738SOL    HW173221   6.090   2.201   7.101
23738SOL    HW273222   5.939   2.198   7.088
23739SOL     OW73223   7.211   2.304   6.323
23739SOL    HW173224   7.145   2.335   6.259
23739SOL    HW273225   7.206   2.372   6.391
23740SOL     OW73226   6.719   3.216   7.258
23740SOL    HW173227   6.761   3.206   7.344
23740SOL    HW273228   6.677   3.129   7.248
23741SOL     OW73229   5.811   3.319   6.118
23741SOL    HW173230   5.817   3.412   6.144
23741SOL    HW273231   5.756   3.279   6.188
23742SOL     OW73232   5.858   2.937   6.492
23742SOL    HW173233   5.855   2.862   6.553
23742SOL    HW273234   5.809   3.005   6.541
23743SOL     OW73235   6.184   3.648   6.985
23743SOL    HW173236   6.110   3.632   7.046
23743SOL    HW273237   6.212   3.738   7.009
23744SOL     OW73238   6.177   2.854   5.697
23744SOL    HW173239   6.231   2.917   5.643
23744SOL    HW273240   6.200   2.888   5.786
23745SOL     OW73241   7.197   1.972   7.075
23745SOL    HW173242   7.208   2.047   7.015
23745SOL    HW273243   7.190   2.016   7.161
23746SOL     OW73244   5.702   2.520   6.156
23746SOL    HW173245   5.677   2.429   6.181
23746SOL    HW273246   5.700   2.567   6.242
23747SOL     OW73247   7.425   3.606   5.929
23747SOL    HW173248   7.481   3.607   6.009
23747SOL    HW273249   7.438   3.697   5.895
23748SOL     OW73250   7.276   2.774   6.203
23748SOL    HW173251   7.341   2.734   6.143
23748SOL    HW273252   7.237   2.843   6.147
23749SOL     OW73253   7.227   2.998   6.033
23749SOL    HW173254   7.318   2.993   6.000
23749SOL    HW273255   7.235   3.062   6.107
23750SOL     OW73256   5.695   2.602   7.160
23750SOL    HW173257   5.789   2.626   7.166
23750SOL    HW273258   5.652   2.688   7.173
23751SOL     OW73259   6.175   3.281   6.336
23751SOL    HW173260   6.142   3.190   6.320
23751SOL    HW273261   6.204   3.311   6.248
23752SOL     OW73262   6.886   3.091   7.011
23752SOL    HW173263   6.903   3.018   6.949
23752SOL    HW273264   6.946   3.073   7.085
23753SOL     OW73265   6.421   1.860   6.087
23753SOL    HW173266   6.451   1.953   6.079
23753SOL    HW273267   6.325   1.869   6.083
23754SOL     OW73268   5.755   2.828   6.853
23754SOL    HW173269   5.849   2.804   6.842
23754SOL    HW273270   5.710   2.761   6.800
23755SOL     OW73271   7.124   2.838   5.773
23755SOL    HW173272   7.046   2.788   5.805
23755SOL    HW273273   7.158   2.878   5.854
23756SOL     OW73274   6.779   3.660   7.218
23756SOL    HW173275   6.785   3.728   7.149
23756SOL    HW273276   6.788   3.578   7.167
23757SOL     OW73277   5.929   2.097   7.387
23757SOL    HW173278   5.983   2.176   7.390
23757SOL    HW273279   5.846   2.129   7.426
23758SOL     OW73280   7.062   3.283   6.544
23758SOL    HW173281   6.998   3.303   6.616
23758SOL    HW273282   7.032   3.194   6.516
23759SOL     OW73283   7.242   3.602   6.170
23759SOL    HW173284   7.218   3.574   6.080
23759SOL    HW273285   7.209   3.527   6.223
23760SOL     OW73286   6.170   2.584   5.827
23760SOL    HW173287   6.183   2.667   5.777
23760SOL    HW273288   6.097   2.608   5.886
23761SOL     OW73289   6.860   2.188   6.490
23761SOL    HW173290   6.770   2.161   6.516
23761SOL    HW273291   6.913   2.152   6.564
23762SOL     OW73292   7.161   3.506   5.895
23762SOL    HW173293   7.251   3.541   5.882
23762SOL    HW273294   7.129   3.498   5.803
23763SOL     OW73295   6.391   2.488   7.050
23763SOL    HW173296   6.369   2.447   7.137
23763SOL    HW273297   6.343   2.428   6.989
23764SOL     OW73298   6.987   2.335   7.264
23764SOL    HW173299   6.996   2.392   7.342
23764SOL    HW273300   7.040   2.256   7.287
23765SOL     OW73301   6.541   2.748   7.163
23765SOL    HW173302   6.580   2.665   7.127
23765SOL    HW273303   6.500   2.786   7.083
23766SOL     OW73304   6.556   2.259   6.819
23766SOL    HW173305   6.465   2.291   6.832
23766SOL    HW273306   6.551   2.213   6.734
23767SOL     OW73307   6.630   2.534   6.002
23767SOL    HW173308   6.640   2.557   6.097
23767SOL    HW273309   6.542   2.490   6.002
23768SOL     OW73310   5.695   2.666   6.378
23768SOL    HW173311   5.767   2.670   6.444
23768SOL    HW273312   5.657   2.755   6.385
23769SOL     OW73313   5.699   3.667   7.151
23769SOL    HW173314   5.706   3.655   7.248
23769SOL    HW273315   5.607   3.690   7.139
23770SOL     OW73316   6.469   2.198   5.810
23770SOL    HW173317   6.508   2.260   5.747
23770SOL    HW273318   6.480   2.114   5.765
23771SOL     OW73319   7.311   2.454   7.431
23771SOL    HW173320   7.267   2.527   7.383
23771SOL    HW273321   7.336   2.396   7.358
23772SOL     OW73322   6.945   3.010   6.147
23772SOL    HW173323   7.021   3.009   6.089
23772SOL    HW273324   6.889   3.077   6.106
23773SOL     OW73325   6.144   2.056   6.488
23773SOL    HW173326   6.146   2.072   6.585
23773SOL    HW273327   6.131   2.145   6.453
23774SOL     OW73328   6.581   3.326   6.090
23774SOL    HW173329   6.509   3.319   6.025
23774SOL    HW273330   6.548   3.398   6.145
23775SOL     OW73331   7.392   2.908   6.462
23775SOL    HW173332   7.346   2.894   6.378
23775SOL    HW273333   7.319   2.911   6.525
23776SOL     OW73334   6.806   3.421   7.089
23776SOL    HW173335   6.791   3.351   7.154
23776SOL    HW273336   6.764   3.383   7.010
23777SOL     OW73337   5.893   2.815   5.832
23777SOL    HW173338   5.961   2.871   5.792
23777SOL    HW273339   5.862   2.765   5.755
23778SOL     OW73340   7.061   2.622   6.308
23778SOL    HW173341   7.064   2.594   6.401
23778SOL    HW273342   7.142   2.675   6.299
23779SOL     OW73343   6.039   3.138   7.304
23779SOL    HW173344   6.001   3.137   7.213
23779SOL    HW273345   5.958   3.142   7.357
23780SOL     OW73346   6.695   3.611   5.825
23780SOL    HW173347   6.609   3.597   5.866
23780SOL    HW273348   6.688   3.568   5.738
23781SOL     OW73349   5.754   2.139   7.088
23781SOL    HW173350   5.678   2.187   7.123
23781SOL    HW273351   5.733   2.047   7.114
23782SOL     OW73352   7.201   3.227   5.681
23782SOL    HW173353   7.153   3.312   5.669
23782SOL    HW273354   7.138   3.164   5.644
23783SOL     OW73355   6.986   1.960   6.031
23783SOL    HW173356   6.978   1.926   5.940
23783SOL    HW273357   7.080   1.983   6.037
23784SOL     OW73358   5.824   3.649   6.810
23784SOL    HW173359   5.884   3.585   6.852
23784SOL    HW273360   5.842   3.639   6.716
23785SOL     OW73361   6.524   3.549   6.483
23785SOL    HW173362   6.620   3.539   6.490
23785SOL    HW273363   6.508   3.519   6.393
23786SOL     OW73364   5.968   2.543   6.066
23786SOL    HW173365   5.980   2.447   6.086
23786SOL    HW273366   5.872   2.552   6.077
23787SOL     OW73367   7.123   2.102   7.311
23787SOL    HW173368   7.124   2.107   7.410
23787SOL    HW273369   7.059   2.031   7.297
23788SOL     OW73370   6.211   1.997   5.691
23788SOL    HW173371   6.290   1.946   5.711
23788SOL    HW273372   6.166   1.940   5.625
23789SOL     OW73373   6.360   2.118   7.324
23789SOL    HW173374   6.435   2.057   7.337
23789SOL    HW273375   6.304   2.099   7.401
23790SOL     OW73376   6.473   3.397   6.792
23790SOL    HW173377   6.467   3.383   6.696
23790SOL    HW273378   6.544   3.337   6.821
23791SOL     OW73379   6.916   2.450   7.021
23791SOL    HW173380   6.954   2.416   7.104
23791SOL    HW273381   6.965   2.532   7.006
23792SOL     OW73382   6.393   3.278   6.504
23792SOL    HW173383   6.481   3.266   6.465
23792SOL    HW273384   6.334   3.282   6.427
23793SOL     OW73385   6.525   2.374   6.496
23793SOL    HW173386   6.498   2.367   6.402
23793SOL    HW273387   6.556   2.284   6.514
23794SOL     OW73388   6.145   1.911   6.074
23794SOL    HW173389   6.069   1.921   6.134
23794SOL    HW273390   6.135   1.994   6.020
23795SOL     OW73391   7.008   3.047   5.609
23795SOL    HW173392   7.024   2.977   5.674
23795SOL    HW273393   6.919   3.078   5.632
23796SOL     OW73394   5.877   1.905   5.777
23796SOL    HW173395   5.933   1.980   5.754
23796SOL    HW273396   5.941   1.847   5.822
23797SOL     OW73397   6.515   2.115   6.073
23797SOL    HW173398   6.495   2.156   5.987
23797SOL    HW273399   6.610   2.131   6.080
23798SOL     OW73400   6.667   2.535   7.061
23798SOL    HW173401   6.611   2.457   7.059
23798SOL    HW273402   6.758   2.500   7.055
23799SOL     OW73403   6.834   3.429   6.350
23799SOL    HW173404   6.832   3.499   6.281
23799SOL    HW273405   6.887   3.471   6.419
23800SOL     OW73406   6.058   3.019   6.327
23800SOL    HW173407   5.987   2.989   6.387
23800SOL    HW273408   6.022   2.992   6.240
23801SOL     OW73409   6.858   3.655   6.192
23801SOL    HW173410   6.911   3.720   6.141
23801SOL    HW273411   6.785   3.710   6.226
23802SOL     OW73412   6.646   2.404   5.601
23802SOL    HW173413   6.599   2.489   5.590
23802SOL    HW273414   6.710   2.422   5.672
23803SOL     OW73415   5.649   2.411   6.980
23803SOL    HW173416   5.743   2.395   6.962
23803SOL    HW273417   5.654   2.489   7.039
23804SOL     OW73418   6.153   2.085   6.757
23804SOL    HW173419   6.197   2.011   6.801
23804SOL    HW273420   6.062   2.076   6.790
23805SOL     OW73421   6.461   2.335   6.240
23805SOL    HW173422   6.406   2.383   6.176
23805SOL    HW273423   6.476   2.251   6.194
23806SOL     OW73424   6.615   1.930   6.352
23806SOL    HW173425   6.565   1.914   6.271
23806SOL    HW273426   6.592   1.852   6.406
23807SOL     OW73427   7.000   3.032   6.473
23807SOL    HW173428   6.923   2.973   6.472
23807SOL    HW273429   7.033   3.024   6.382
23808SOL     OW73430   7.061   2.457   6.572
23808SOL    HW173431   7.013   2.373   6.579
23808SOL    HW273432   7.127   2.451   6.643
23809SOL     OW73433   7.425   2.683   5.986
23809SOL    HW173434   7.482   2.624   6.041
23809SOL    HW273435   7.412   2.626   5.908
23810SOL     OW73436   7.266   3.144   6.258
23810SOL    HW173437   7.363   3.154   6.253
23810SOL    HW273438   7.234   3.235   6.271
23811SOL     OW73439   6.992   2.457   5.651
23811SOL    HW173440   6.946   2.428   5.732
23811SOL    HW273441   7.085   2.442   5.674
23812SOL     OW73442   6.106   2.111   5.911
23812SOL    HW173443   6.149   2.079   5.829
23812SOL    HW273444   6.080   2.201   5.882
23813SOL     OW73445   7.336   3.089   7.154
23813SOL    HW173446   7.402   3.054   7.215
23813SOL    HW273447   7.350   3.185   7.163
23814SOL     OW73448   6.664   3.223   6.935
23814SOL    HW173449   6.589   3.179   6.977
23814SOL    HW273450   6.740   3.173   6.973
23815SOL     OW73451   7.185   3.462   7.228
23815SOL    HW173452   7.192   3.509   7.143
23815SOL    HW273453   7.267   3.410   7.229
23816SOL     OW73454   6.716   3.086   6.682
23816SOL    HW173455   6.636   3.103   6.733
23816SOL    HW273456   6.699   3.136   6.600
23817SOL     OW73457   7.182   2.955   6.658
23817SOL    HW173458   7.188   3.025   6.726
23817SOL    HW273459   7.112   2.990   6.599
23818SOL     OW73460   6.499   1.963   6.979
23818SOL    HW173461   6.533   1.937   6.891
23818SOL    HW273462   6.577   2.007   7.018
23819SOL     OW73463   6.599   2.973   7.328
23819SOL    HW173464   6.511   3.006   7.349
23819SOL    HW273465   6.582   2.901   7.265
23820SOL     OW73466   6.288   2.916   5.939
23820SOL    HW173467   6.281   2.906   6.035
23820SOL    HW273468   6.369   2.866   5.918
23821SOL     OW73469   6.008   2.667   6.851
23821SOL    HW173470   6.078   2.667   6.918
23821SOL    HW273471   5.965   2.581   6.863
23822SOL     OW73472   6.864   2.247   6.847
23822SOL    HW173473   6.882   2.323   6.906
23822SOL    HW273474   6.773   2.264   6.818
23823SOL     OW73475   5.659   3.440   6.938
23823SOL    HW173476   5.655   3.531   6.904
23823SOL    HW273477   5.754   3.432   6.956
23824SOL     OW73478   5.950   2.928   6.093
23824SOL    HW173479   5.907   2.996   6.036
23824SOL    HW273480   5.962   2.857   6.028
23825SOL     OW73481   6.119   2.416   6.434
23825SOL    HW173482   6.145   2.477   6.361
23825SOL    HW273483   6.191   2.428   6.497
23826SOL     OW73484   6.794   3.209   5.970
23826SOL    HW173485   6.852   3.278   6.008
23826SOL    HW273486   6.708   3.239   6.006
23827SOL     OW73487   6.894   3.327   6.751
23827SOL    HW173488   6.945   3.328   6.834
23827SOL    HW273489   6.826   3.260   6.770
23828SOL     OW73490   7.173   2.479   6.064
23828SOL    HW173491   7.122   2.535   6.125
23828SOL    HW273492   7.203   2.542   5.997
23829SOL     OW73493   5.929   3.372   6.921
23829SOL    HW173494   5.912   3.335   6.831
23829SOL    HW273495   6.025   3.388   6.912
23830SOL     OW73496   6.001   2.600   7.192
23830SOL    HW173497   6.069   2.642   7.136
23830SOL    HW273498   6.029   2.508   7.192
23831SOL     OW73499   7.210   2.635   7.266
23831SOL    HW173500   7.120   2.672   7.266
23831SOL    HW273501   7.249   2.678   7.188
23832SOL     OW73502   6.583   1.963   7.351
23832SOL    HW173503   6.644   2.036   7.334
23832SOL    HW273504   6.626   1.890   7.303
23833SOL     OW73505   6.081   1.872   7.345
23833SOL    HW173506   6.036   1.820   7.275
23833SOL    HW273507   6.021   1.948   7.352
23834SOL     OW73508   6.172   2.754   6.633
23834SOL    HW173509   6.201   2.846   6.635
23834SOL    HW273510   6.121   2.744   6.715
23835SOL     OW73511   6.944   2.716   6.610
23835SOL    HW173512   6.857   2.689   6.577
23835SOL    HW273513   6.991   2.632   6.610
23836SOL     OW73514   6.809   2.388   5.853
23836SOL    HW173515   6.815   2.315   5.917
23836SOL    HW273516   6.748   2.449   5.899
23837SOL     OW73517   5.894   2.057   6.841
23837SOL    HW173518   5.841   2.080   6.919
23837SOL    HW273519   5.874   1.961   6.831
23838SOL     OW73520   5.602   3.183   6.867
23838SOL    HW173521   5.650   3.135   6.936
23838SOL    HW273522   5.625   3.277   6.883
23839SOL     OW73523   6.309   2.513   6.638
23839SOL    HW173524   6.386   2.506   6.580
23839SOL    HW273525   6.274   2.603   6.621
23840SOL     OW73526   7.351   2.816   7.425
23840SOL    HW173527   7.301   2.755   7.368
23840SOL    HW273528   7.290   2.822   7.501
23841SOL     OW73529   5.894   1.926   6.184
23841SOL    HW173530   5.864   2.015   6.212
23841SOL    HW273531   5.903   1.882   6.271
23842SOL     OW73532   7.182   2.244   5.933
23842SOL    HW173533   7.218   2.173   5.990
23842SOL    HW273534   7.177   2.320   5.994
23843SOL     OW73535   6.635   2.614   6.554
23843SOL    HW173536   6.621   2.629   6.650
23843SOL    HW273537   6.610   2.520   6.545
23844SOL     OW73538   6.558   3.425   7.286
23844SOL    HW173539   6.552   3.474   7.200
23844SOL    HW273540   6.601   3.342   7.259
23845SOL     OW73541   7.428   3.349   7.190
23845SOL    HW173542   7.456   3.380   7.103
23845SOL    HW273543   7.499   3.385   7.246
23846SOL     OW73544   5.933   2.761   7.389
23846SOL    HW173545   6.018   2.778   7.432
23846SOL    HW273546   5.956   2.690   7.325
23847SOL     OW73547   7.086   2.110   5.712
23847SOL    HW173548   7.019   2.050   5.748
23847SOL    HW273549   7.121   2.156   5.790
23848SOL     OW73550   6.867   2.697   5.613
23848SOL    HW173551   6.906   2.609   5.626
23848SOL    HW273552   6.901   2.719   5.524
23849SOL     OW73553   6.652   3.225   6.437
23849SOL    HW173554   6.644   3.145   6.381
23849SOL    HW273555   6.716   3.280   6.387
23850SOL     OW73556   5.872   2.675   6.595
23850SOL    HW173557   5.966   2.692   6.576
23850SOL    HW273558   5.873   2.581   6.617
23851SOL     OW73559   5.910   2.401   6.596
23851SOL    HW173560   5.881   2.309   6.582
23851SOL    HW273561   5.979   2.410   6.526
23852SOL     OW73562   6.734   2.236   7.275
23852SOL    HW173563   6.686   2.290   7.340
23852SOL    HW273564   6.824   2.275   7.278
23853SOL     OW73565   6.749   2.057   7.071
23853SOL    HW173566   6.746   2.125   7.142
23853SOL    HW273567   6.796   2.105   7.001
23854SOL     OW73568   5.605   3.182   5.808
23854SOL    HW173569   5.538   3.217   5.747
23854SOL    HW273570   5.581   3.088   5.814
23855SOL     OW73571   5.663   3.644   6.524
23855SOL    HW173572   5.643   3.564   6.471
23855SOL    HW273573   5.752   3.670   6.497
23856SOL     OW73574   6.073   3.436   6.529
23856SOL    HW173575   6.136   3.509   6.543
23856SOL    HW273576   6.117   3.387   6.457
23857SOL     OW73577   6.566   2.626   6.819
23857SOL    HW173578   6.613   2.595   6.899
23857SOL    HW273579   6.475   2.607   6.842
23858SOL     OW73580   5.610   2.387   6.695
23858SOL    HW173581   5.691   2.375   6.643
23858SOL    HW273582   5.646   2.395   6.784
23859SOL     OW73583   5.811   2.374   7.305
23859SOL    HW173584   5.865   2.330   7.237
23859SOL    HW273585   5.758   2.436   7.252
23860SOL     OW73586   6.969   2.777   7.236
23860SOL    HW173587   6.994   2.871   7.235
23860SOL    HW273588   6.971   2.754   7.142
23861SOL     OW73589   6.373   2.431   5.976
23861SOL    HW173590   6.379   2.364   5.907
23861SOL    HW273591   6.308   2.493   5.940
23862SOL     OW73592   7.232   2.482   6.795
23862SOL    HW173593   7.205   2.413   6.857
23862SOL    HW273594   7.315   2.446   6.759
23863SOL     OW73595   5.826   3.404   7.305
23863SOL    HW173596   5.825   3.476   7.370
23863SOL    HW273597   5.840   3.325   7.360
23864SOL     OW73598   6.276   2.344   6.849
23864SOL    HW173599   6.228   2.267   6.817
23864SOL    HW273600   6.274   2.405   6.773
23865SOL     OW73601   6.512   3.554   7.057
23865SOL    HW173602   6.501   3.515   6.969
23865SOL    HW273603   6.504   3.650   7.039
23866SOL     OW73604   6.038   2.344   5.799
23866SOL    HW173605   6.097   2.421   5.798
23866SOL    HW273606   5.953   2.387   5.775
23867SOL     OW73607   5.689   2.997   7.052
23867SOL    HW173608   5.707   2.943   7.133
23867SOL    HW273609   5.708   2.933   6.981
23868SOL     OW73610   6.902   2.913   6.807
23868SOL    HW173611   6.922   2.852   6.734
23868SOL    HW273612   6.842   2.977   6.763
23869SOL     OW73613   6.899   2.714   5.880
23869SOL    HW173614   6.814   2.695   5.921
23869SOL    HW273615   6.876   2.717   5.785
23870SOL     OW73616   7.337   3.606   6.717
23870SOL    HW173617   7.414   3.624   6.659
23870SOL    HW273618   7.324   3.510   6.699
23871SOL     OW73619   6.818   3.591   6.699
23871SOL    HW173620   6.894   3.626   6.650
23871SOL    HW273621   6.840   3.497   6.709
23872SOL     OW73622   5.689   3.119   6.612
23872SOL    HW173623   5.648   3.137   6.699
23872SOL    HW273624   5.620   3.067   6.567
23873SOL     OW73625   6.280   3.502   7.329
23873SOL    HW173626   6.246   3.588   7.302
23873SOL    HW273627   6.371   3.503   7.296
23874SOL     OW73628   7.266   2.008   6.075
23874SOL    HW173629   7.340   1.991   6.014
23874SOL    HW273630   7.268   1.929   6.133
23875SOL     OW73631   6.958   3.425   6.066
23875SOL    HW173632   7.020   3.443   5.993
23875SOL    HW273633   6.921   3.513   6.083
23876SOL     OW73634   5.738   3.646   7.423
23876SOL    HW173635   5.663   3.604   7.467
23876SOL    HW273636   5.783   3.694   7.495
23877SOL     OW73637   6.843   2.773   6.245
23877SOL    HW173638   6.925   2.725   6.266
23877SOL    HW273639   6.877   2.856   6.204
23878SOL     OW73640   6.390   3.123   7.019
23878SOL    HW173641   6.355   3.172   7.097
23878SOL    HW273642   6.334   3.157   6.948
23879SOL     OW73643   7.209   3.578   6.985
23879SOL    HW173644   7.258   3.589   6.902
23879SOL    HW273645   7.196   3.670   7.014
23880SOL     OW73646   7.430   2.029   6.560
23880SOL    HW173647   7.454   1.941   6.525
23880SOL    HW273648   7.342   2.045   6.521
23881SOL     OW73649   5.827   2.161   6.300
23881SOL    HW173650   5.749   2.215   6.277
23881SOL    HW273651   5.832   2.171   6.396
23882SOL     OW73652   6.784   3.473   5.601
23882SOL    HW173653   6.771   3.378   5.609
23882SOL    HW273654   6.728   3.496   5.524
23883SOL     OW73655   6.404   2.866   6.960
23883SOL    HW173656   6.420   2.879   6.865
23883SOL    HW273657   6.398   2.958   6.992
23884SOL     OW73658   6.498   2.769   5.876
23884SOL    HW173659   6.564   2.810   5.816
23884SOL    HW273660   6.539   2.686   5.901
23885SOL     OW73661   7.076   3.455   5.640
23885SOL    HW173662   6.985   3.491   5.638
23885SOL    HW273663   7.107   3.477   5.550
23886SOL     OW73664   5.931   3.132   7.065
23886SOL    HW173665   5.926   3.212   7.011
23886SOL    HW273666   5.847   3.087   7.047
23887SOL     OW73667   7.189   3.171   6.841
23887SOL    HW173668   7.244   3.142   6.915
23887SOL    HW273669   7.129   3.234   6.884
23888SOL     OW73670   6.625   2.984   6.315
23888SOL    HW173671   6.553   2.923   6.339
23888SOL    HW273672   6.670   2.939   6.243
23889SOL     OW73673   6.617   2.091   6.575
23889SOL    HW173674   6.608   2.046   6.489
23889SOL    HW273675   6.619   2.015   6.636
23890SOL     OW73676   7.294   2.230   6.971
23890SOL    HW173677   7.352   2.308   6.966
23890SOL    HW273678   7.341   2.168   6.910
23891SOL     OW73679   5.816   3.112   5.962
23891SOL    HW173680   5.753   3.141   5.893
23891SOL    HW273681   5.827   3.196   6.011
23892SOL     OW73682   5.715   2.874   7.287
23892SOL    HW173683   5.643   2.857   7.350
23892SOL    HW273684   5.793   2.836   7.333
23893SOL     OW73685   6.255   2.043   7.074
23893SOL    HW173686   6.341   2.017   7.036
23893SOL    HW273687   6.283   2.083   7.159
23894SOL     OW73688   5.689   2.193   5.600
23894SOL    HW173689   5.594   2.202   5.590
23894SOL    HW273690   5.720   2.268   5.546
23895SOL     OW73691   7.040   2.718   6.974
23895SOL    HW173692   6.989   2.776   6.916
23895SOL    HW273693   7.131   2.739   6.949
23896SOL     OW73694   5.637   2.026   5.876
23896SOL    HW173695   5.632   2.115   5.839
23896SOL    HW273696   5.728   2.000   5.852
23897SOL     OW73697   6.760   3.196   5.691
23897SOL    HW173698   6.663   3.204   5.692
23897SOL    HW273699   6.781   3.203   5.787
23898SOL     OW73700   6.209   2.684   7.027
23898SOL    HW173701   6.264   2.763   7.016
23898SOL    HW273702   6.279   2.616   7.033
23899SOL     OW73703   7.083   3.620   6.546
23899SOL    HW173704   7.122   3.665   6.469
23899SOL    HW273705   7.156   3.617   6.608
23900SOL     OW73706   6.317   2.397   7.284
23900SOL    HW173707   6.359   2.464   7.339
23900SOL    HW273708   6.340   2.313   7.325
23901SOL     OW73709   7.053   3.040   7.217
23901SOL    HW173710   7.038   3.048   7.313
23901SOL    HW273711   7.146   3.066   7.209
23902SOL     OW73712   5.969   3.598   7.141
23902SOL    HW173713   5.879   3.635   7.138
23902SOL    HW273714   5.951   3.506   7.162
23903SOL     OW73715   7.284   2.744   6.825
23903SOL    HW173716   7.266   2.653   6.796
23903SOL    HW273717   7.243   2.799   6.755
23904SOL     OW73718   6.792   2.193   6.060
23904SOL    HW173719   6.855   2.120   6.056
23904SOL    HW273720   6.828   2.247   6.134
23905SOL     OW73721   6.194   2.581   6.240
23905SOL    HW173722   6.230   2.671   6.232
23905SOL    HW273723   6.121   2.583   6.176
23906SOL     OW73724   7.352   2.235   7.238
23906SOL    HW173725   7.331   2.251   7.145
23906SOL    HW273726   7.274   2.185   7.266
23907SOL     OW73727   7.327   2.808   7.082
23907SOL    HW173728   7.323   2.905   7.079
23907SOL    HW273729   7.327   2.786   6.986
23908SOL     OW73730   6.261   3.641   6.563
23908SOL    HW173731   6.272   3.734   6.540
23908SOL    HW273732   6.342   3.601   6.527
23909SOL     OW73733   6.450   2.800   6.434
23909SOL    HW173734   6.507   2.732   6.472
23909SOL    HW273735   6.443   2.865   6.506
23910SOL     OW73736   6.674   2.862   5.694
23910SOL    HW173737   6.642   2.920   5.622
23910SOL    HW273738   6.738   2.806   5.646
23911SOL     OW73739   7.445   3.427   6.426
23911SOL    HW173740   7.359   3.426   6.382
23911SOL    HW273741   7.438   3.354   6.490
23912SOL     OW73742   5.823   3.175   7.460
23912SOL    HW173743   5.751   3.113   7.441
23912SOL    HW273744   5.823   3.180   7.557
23913SOL     OW73745   5.665   3.100   6.238
23913SOL    HW173746   5.701   3.045   6.310
23913SOL    HW273747   5.717   3.073   6.161
23914SOL     OW73748   6.261   3.261   7.204
23914SOL    HW173749   6.182   3.212   7.233
23914SOL    HW273750   6.248   3.348   7.248
23915SOL     OW73751   7.412   2.042   6.818
23915SOL    HW173752   7.418   1.947   6.827
23915SOL    HW273753   7.419   2.051   6.720
23916SOL     OW73754   6.001   2.288   6.127
23916SOL    HW173755   6.057   2.225   6.079
23916SOL    HW273756   5.975   2.242   6.208
23917SOL     OW73757   7.296   3.350   6.669
23917SOL    HW173758   7.219   3.335   6.611
23917SOL    HW273759   7.275   3.288   6.741
23918SOL     OW73760   5.908   2.406   6.875
23918SOL    HW173761   5.973   2.357   6.929
23918SOL    HW273762   5.927   2.375   6.785
23919SOL     OW73763   7.021   2.101   6.691
23919SOL    HW173764   7.047   2.021   6.737
23919SOL    HW273765   6.968   2.150   6.758
23920SOL     OW73766   6.608   1.860   6.741
23920SOL    HW173767   6.554   1.787   6.707
23920SOL    HW273768   6.698   1.820   6.738
23921SOL     OW73769   6.409   3.183   5.922
23921SOL    HW173770   6.337   3.123   5.898
23921SOL    HW273771   6.483   3.148   5.871
23922SOL     OW73772   6.191   3.405   6.866
23922SOL    HW173773   6.186   3.497   6.900
23922SOL    HW273774   6.283   3.406   6.836
23923SOL     OW73775   6.902   1.882   5.773
23923SOL    HW173776   6.913   1.828   5.693
23923SOL    HW273777   6.811   1.855   5.800
23924SOL     OW73778   6.888   2.341   6.268
23924SOL    HW173779   6.826   2.417   6.272
23924SOL    HW273780   6.865   2.292   6.350
23925SOL     OW73781   7.183   2.063   6.460
23925SOL    HW173782   7.113   2.084   6.523
23925SOL    HW273783   7.188   2.143   6.404
23926SOL     OW73784   5.614   2.922   5.899
23926SOL    HW173785   5.708   2.940   5.882
23926SOL    HW273786   5.617   2.828   5.925
23927SOL     OW73787   5.816   2.515   7.585
23927SOL    HW173788   5.727   2.486   7.612
23927SOL    HW273789   5.822   2.486   7.493
23928SOL     OW73790   5.807   2.138   8.431
23928SOL    HW173791   5.830   2.121   8.524
23928SOL    HW273792   5.719   2.096   8.424
23929SOL     OW73793   5.595   2.269   8.080
23929SOL    HW173794   5.513   2.291   8.128
23929SOL    HW273795   5.569   2.189   8.032
23930SOL     OW73796   6.158   3.152   8.646
23930SOL    HW173797   6.072   3.150   8.601
23930SOL    HW273798   6.165   3.246   8.672
23931SOL     OW73799   7.136   3.388   8.165
23931SOL    HW173800   7.096   3.365   8.251
23931SOL    HW273801   7.062   3.380   8.101
23932SOL     OW73802   6.719   2.547   8.152
23932SOL    HW173803   6.747   2.637   8.129
23932SOL    HW273804   6.677   2.561   8.239
23933SOL     OW73805   7.359   2.462   7.689
23933SOL    HW173806   7.341   2.465   7.592
23933SOL    HW273807   7.310   2.382   7.714
23934SOL     OW73808   6.333   3.025   8.477
23934SOL    HW173809   6.271   3.066   8.539
23934SOL    HW273810   6.362   3.103   8.427
23935SOL     OW73811   6.466   2.608   9.248
23935SOL    HW173812   6.439   2.679   9.308
23935SOL    HW273813   6.490   2.656   9.166
23936SOL     OW73814   6.278   2.880   8.112
23936SOL    HW173815   6.344   2.852   8.178
23936SOL    HW273816   6.215   2.928   8.167
23937SOL     OW73817   6.282   3.017   9.251
23937SOL    HW173818   6.324   3.102   9.276
23937SOL    HW273819   6.194   3.046   9.219
23938SOL     OW73820   5.903   3.288   8.522
23938SOL    HW173821   5.834   3.238   8.476
23938SOL    HW273822   5.950   3.336   8.451
23939SOL     OW73823   7.054   3.355   8.827
23939SOL    HW173824   7.109   3.436   8.837
23939SOL    HW273825   6.991   3.365   8.900
23940SOL     OW73826   6.013   2.249   9.006
23940SOL    HW173827   6.092   2.236   8.952
23940SOL    HW273828   5.944   2.207   8.951
23941SOL     OW73829   7.160   2.354   8.237
23941SOL    HW173830   7.087   2.354   8.173
23941SOL    HW273831   7.226   2.404   8.187
23942SOL     OW73832   5.804   3.574   7.925
23942SOL    HW173833   5.835   3.654   7.973
23942SOL    HW273834   5.867   3.570   7.852
23943SOL     OW73835   6.707   3.208   9.115
23943SOL    HW173836   6.752   3.206   9.200
23943SOL    HW273837   6.665   3.120   9.116
23944SOL     OW73838   5.837   3.289   7.976
23944SOL    HW173839   5.836   3.384   7.992
23944SOL    HW273840   5.772   3.255   8.038
23945SOL     OW73841   5.858   2.949   8.346
23945SOL    HW173842   5.854   2.878   8.412
23945SOL    HW273843   5.804   3.018   8.389
23946SOL     OW73844   6.192   3.649   8.865
23946SOL    HW173845   6.117   3.624   8.921
23946SOL    HW273846   6.211   3.740   8.896
23947SOL     OW73847   6.154   2.854   7.569
23947SOL    HW173848   6.199   2.908   7.501
23947SOL    HW273849   6.201   2.884   7.649
23948SOL     OW73850   7.197   1.971   8.941
23948SOL    HW173851   7.203   2.047   8.881
23948SOL    HW273852   7.209   2.013   9.027
23949SOL     OW73853   5.687   2.522   8.009
23949SOL    HW173854   5.665   2.428   8.021
23949SOL    HW273855   5.685   2.555   8.100
23950SOL     OW73856   7.425   3.606   7.799
23950SOL    HW173857   7.503   3.587   7.856
23950SOL    HW273858   7.444   3.696   7.771
23951SOL     OW73859   5.575   3.442   7.562
23951SOL    HW173860   5.626   3.366   7.592
23951SOL    HW273861   5.578   3.502   7.639
23952SOL     OW73862   7.272   2.767   8.081
23952SOL    HW173863   7.340   2.729   8.023
23952SOL    HW273864   7.238   2.837   8.023
23953SOL     OW73865   7.226   2.982   7.898
23953SOL    HW173866   7.316   2.978   7.861
23953SOL    HW273867   7.236   3.050   7.967
23954SOL     OW73868   5.714   2.608   9.030
23954SOL    HW173869   5.803   2.642   9.049
23954SOL    HW273870   5.660   2.685   9.050
23955SOL     OW73871   6.182   3.275   8.201
23955SOL    HW173872   6.136   3.188   8.210
23955SOL    HW273873   6.172   3.290   8.105
23956SOL     OW73874   6.870   3.090   8.874
23956SOL    HW173875   6.904   3.015   8.821
23956SOL    HW273876   6.918   3.079   8.958
23957SOL     OW73877   6.416   1.863   7.935
23957SOL    HW173878   6.448   1.955   7.929
23957SOL    HW273879   6.320   1.876   7.944
23958SOL     OW73880   5.771   2.844   8.701
23958SOL    HW173881   5.860   2.807   8.691
23958SOL    HW273882   5.714   2.776   8.663
23959SOL     OW73883   7.145   2.809   7.624
23959SOL    HW173884   7.065   2.760   7.651
23959SOL    HW273885   7.176   2.845   7.708
23960SOL     OW73886   6.765   3.663   9.067
23960SOL    HW173887   6.770   3.725   8.992
23960SOL    HW273888   6.786   3.578   9.024
23961SOL     OW73889   5.931   2.092   9.257
23961SOL    HW173890   5.979   2.169   9.225
23961SOL    HW273891   5.852   2.134   9.297
23962SOL     OW73892   7.051   3.293   8.411
23962SOL    HW173893   6.991   3.311   8.486
23962SOL    HW273894   7.020   3.204   8.383
23963SOL     OW73895   7.248   3.594   8.045
23963SOL    HW173896   7.235   3.561   7.955
23963SOL    HW273897   7.214   3.518   8.098
23964SOL     OW73898   6.181   2.574   7.712
23964SOL    HW173899   6.181   2.660   7.669
23964SOL    HW273900   6.109   2.583   7.777
23965SOL     OW73901   6.856   2.245   8.403
23965SOL    HW173902   6.767   2.205   8.414
23965SOL    HW273903   6.911   2.178   8.448
23966SOL     OW73904   7.162   3.505   7.757
23966SOL    HW173905   7.256   3.527   7.761
23966SOL    HW273906   7.147   3.502   7.661
23967SOL     OW73907   6.979   2.338   9.112
23967SOL    HW173908   6.978   2.398   9.189
23967SOL    HW273909   7.038   2.266   9.144
23968SOL     OW73910   6.561   2.749   9.028
23968SOL    HW173911   6.599   2.667   8.990
23968SOL    HW273912   6.510   2.783   8.952
23969SOL     OW73913   6.588   2.269   8.681
23969SOL    HW173914   6.538   2.321   8.745
23969SOL    HW273915   6.520   2.238   8.621
23970SOL     OW73916   6.629   2.544   7.855
23970SOL    HW173917   6.638   2.565   7.950
23970SOL    HW273918   6.544   2.495   7.854
23971SOL     OW73919   5.687   2.671   8.250
23971SOL    HW173920   5.762   2.668   8.312
23971SOL    HW273921   5.645   2.755   8.275
23972SOL     OW73922   5.693   3.702   9.018
23972SOL    HW173923   5.704   3.679   9.113
23972SOL    HW273924   5.599   3.693   9.005
23973SOL     OW73925   6.467   2.228   7.660
23973SOL    HW173926   6.497   2.283   7.586
23973SOL    HW273927   6.492   2.140   7.629
23974SOL     OW73928   7.316   2.444   9.281
23974SOL    HW173929   7.271   2.518   9.234
23974SOL    HW273930   7.340   2.387   9.207
23975SOL     OW73931   6.947   3.013   8.009
23975SOL    HW173932   7.023   3.002   7.951
23975SOL    HW273933   6.894   3.078   7.958
23976SOL     OW73934   6.132   2.053   8.327
23976SOL    HW173935   6.136   2.068   8.423
23976SOL    HW273936   6.122   2.142   8.292
23977SOL     OW73937   6.575   3.308   7.927
23977SOL    HW173938   6.532   3.372   7.867
23977SOL    HW273939   6.584   3.359   8.009
23978SOL     OW73940   5.932   3.668   8.302
23978SOL    HW173941   5.977   3.583   8.317
23978SOL    HW273942   6.000   3.731   8.328
23979SOL     OW73943   7.405   2.916   8.339
23979SOL    HW173944   7.352   2.914   8.258
23979SOL    HW273945   7.340   2.897   8.408
23980SOL     OW73946   6.804   3.413   8.952
23980SOL    HW173947   6.778   3.346   9.018
23980SOL    HW273948   6.766   3.376   8.871
23981SOL     OW73949   5.885   2.815   7.700
23981SOL    HW173950   5.965   2.836   7.649
23981SOL    HW273951   5.860   2.728   7.663
23982SOL     OW73952   7.061   2.618   8.156
23982SOL    HW173953   7.052   2.613   8.252
23982SOL    HW273954   7.143   2.670   8.145
23983SOL     OW73955   6.042   3.129   9.177
23983SOL    HW173956   6.004   3.134   9.087
23983SOL    HW273957   5.962   3.141   9.231
23984SOL     OW73958   6.687   3.622   7.697
23984SOL    HW173959   6.613   3.576   7.740
23984SOL    HW273960   6.693   3.577   7.611
23985SOL     OW73961   5.763   2.152   8.943
23985SOL    HW173962   5.692   2.209   8.975
23985SOL    HW273963   5.764   2.080   9.007
23986SOL     OW73964   7.205   3.225   7.540
23986SOL    HW173965   7.164   3.309   7.513
23986SOL    HW273966   7.141   3.158   7.509
23987SOL     OW73967   6.041   3.597   7.771
23987SOL    HW173968   6.091   3.650   7.836
23987SOL    HW273969   6.111   3.566   7.712
23988SOL     OW73970   6.983   2.012   7.917
23988SOL    HW173971   6.970   1.963   7.834
23988SOL    HW273972   7.080   2.009   7.928
23989SOL     OW73973   5.834   3.660   8.679
23989SOL    HW173974   5.886   3.591   8.723
23989SOL    HW273975   5.832   3.628   8.588
23990SOL     OW73976   6.547   3.553   8.337
23990SOL    HW173977   6.632   3.507   8.335
23990SOL    HW273978   6.498   3.507   8.266
23991SOL     OW73979   5.974   2.569   7.911
23991SOL    HW173980   5.999   2.477   7.932
23991SOL    HW273981   5.878   2.565   7.925
23992SOL     OW73982   7.133   2.121   9.183
23992SOL    HW173983   7.131   2.126   9.282
23992SOL    HW273984   7.080   2.041   9.170
23993SOL     OW73985   6.209   1.989   7.542
23993SOL    HW173986   6.281   1.931   7.568
23993SOL    HW273987   6.161   1.935   7.476
23994SOL     OW73988   6.341   2.091   9.212
23994SOL    HW173989   6.436   2.076   9.214
23994SOL    HW273990   6.334   2.188   9.225
23995SOL     OW73991   6.470   3.403   8.644
23995SOL    HW173992   6.465   3.382   8.549
23995SOL    HW273993   6.527   3.332   8.678
23996SOL     OW73994   6.950   2.443   8.850
23996SOL    HW173995   6.976   2.416   8.940
23996SOL    HW273996   6.979   2.536   8.847
23997SOL     OW73997   6.390   3.275   8.372
23997SOL    HW173998   6.477   3.260   8.330
23997SOL    HW273999   6.329   3.276   8.296
23998SOL     OW74000   6.534   2.389   8.361
23998SOL    HW174001   6.506   2.381   8.267
23998SOL    HW274002   6.544   2.296   8.384
23999SOL     OW74003   6.148   1.909   7.944
23999SOL    HW174004   6.070   1.914   8.003
23999SOL    HW274005   6.134   1.988   7.888
24000SOL     OW74006   7.029   3.035   7.479
24000SOL    HW174007   7.050   2.959   7.536
24000SOL    HW274008   6.944   3.067   7.512
24001SOL     OW74009   5.868   1.908   7.650
24001SOL    HW174010   5.927   1.975   7.615
24001SOL    HW274011   5.931   1.842   7.684
24002SOL     OW74012   6.518   2.115   7.935
24002SOL    HW174013   6.495   2.163   7.854
24002SOL    HW274014   6.614   2.132   7.939
24003SOL     OW74015   6.701   2.544   8.912
24003SOL    HW174016   6.618   2.493   8.921
24003SOL    HW274017   6.769   2.476   8.905
24004SOL     OW74018   6.809   3.448   8.241
24004SOL    HW174019   6.815   3.502   8.161
24004SOL    HW274020   6.890   3.470   8.287
24005SOL     OW74021   6.063   3.031   8.194
24005SOL    HW174022   5.989   2.997   8.247
24005SOL    HW274023   6.032   3.010   8.103
24006SOL     OW74024   6.850   3.675   8.054
24006SOL    HW174025   6.898   3.743   8.002
24006SOL    HW274026   6.804   3.731   8.119
24007SOL     OW74027   6.632   2.398   7.469
24007SOL    HW174028   6.584   2.480   7.445
24007SOL    HW274029   6.700   2.430   7.530
24008SOL     OW74030   5.652   2.424   8.846
24008SOL    HW174031   5.746   2.405   8.830
24008SOL    HW274032   5.657   2.503   8.902
24009SOL     OW74033   6.157   2.072   8.597
24009SOL    HW174034   6.198   2.003   8.652
24009SOL    HW274035   6.068   2.079   8.637
24010SOL     OW74036   6.462   2.322   8.115
24010SOL    HW174037   6.407   2.369   8.051
24010SOL    HW274038   6.474   2.236   8.073
24011SOL     OW74039   6.636   1.915   8.214
24011SOL    HW174040   6.576   1.914   8.138
24011SOL    HW274041   6.604   1.839   8.267
24012SOL     OW74042   6.992   3.042   8.331
24012SOL    HW174043   6.917   2.983   8.340
24012SOL    HW274044   7.005   3.043   8.234
24013SOL     OW74045   7.406   2.678   7.849
24013SOL    HW174046   7.473   2.632   7.905
24013SOL    HW274047   7.397   2.613   7.776
24014SOL     OW74048   6.077   3.289   7.567
24014SOL    HW174049   5.997   3.275   7.620
24014SOL    HW274050   6.059   3.238   7.487
24015SOL     OW74051   7.264   3.147   8.118
24015SOL    HW174052   7.361   3.152   8.114
24015SOL    HW274053   7.236   3.238   8.135
24016SOL     OW74054   6.989   2.459   7.512
24016SOL    HW174055   6.936   2.426   7.586
24016SOL    HW274056   7.078   2.431   7.536
24017SOL     OW74057   6.109   2.103   7.767
24017SOL    HW174058   6.145   2.071   7.682
24017SOL    HW274059   6.071   2.189   7.738
24018SOL     OW74060   7.312   3.093   9.020
24018SOL    HW174061   7.400   3.054   9.024
24018SOL    HW274062   7.334   3.186   9.033
24019SOL     OW74063   6.654   3.217   8.775
24019SOL    HW174064   6.573   3.194   8.823
24019SOL    HW274065   6.723   3.169   8.827
24020SOL     OW74066   7.197   3.466   9.092
24020SOL    HW174067   7.199   3.508   9.004
24020SOL    HW274068   7.280   3.415   9.091
24021SOL     OW74069   6.705   3.046   8.558
24021SOL    HW174070   6.661   3.102   8.624
24021SOL    HW274071   6.665   3.077   8.476
24022SOL     OW74072   7.173   2.952   8.525
24022SOL    HW174073   7.193   3.019   8.593
24022SOL    HW274074   7.135   3.008   8.455
24023SOL     OW74075   6.525   1.955   8.853
24023SOL    HW174076   6.546   1.938   8.759
24023SOL    HW274077   6.604   2.006   8.881
24024SOL     OW74078   6.575   2.973   9.193
24024SOL    HW174079   6.482   2.997   9.208
24024SOL    HW274080   6.569   2.900   9.129
24025SOL     OW74081   6.300   2.921   7.797
24025SOL    HW174082   6.285   2.901   7.890
24025SOL    HW274083   6.376   2.862   7.775
24026SOL     OW74084   6.008   2.678   8.707
24026SOL    HW174085   6.080   2.677   8.773
24026SOL    HW274086   5.975   2.587   8.715
24027SOL     OW74087   6.869   2.243   8.703
24027SOL    HW174088   6.896   2.319   8.760
24027SOL    HW274089   6.775   2.262   8.685
24028SOL     OW74090   5.658   3.431   8.788
24028SOL    HW174091   5.663   3.523   8.756
24028SOL    HW274092   5.752   3.405   8.787
24029SOL     OW74093   5.962   2.976   7.952
24029SOL    HW174094   5.996   3.032   7.881
24029SOL    HW274095   5.950   2.891   7.907
24030SOL     OW74096   6.127   2.403   8.294
24030SOL    HW174097   6.155   2.464   8.222
24030SOL    HW274098   6.193   2.422   8.362
24031SOL     OW74099   6.811   3.199   7.843
24031SOL    HW174100   6.852   3.280   7.878
24031SOL    HW274101   6.719   3.212   7.871
24032SOL     OW74102   6.880   3.331   8.622
24032SOL    HW174103   6.941   3.335   8.698
24032SOL    HW274104   6.808   3.275   8.655
24033SOL     OW74105   7.172   2.467   7.933
24033SOL    HW174106   7.117   2.527   7.986
24033SOL    HW274107   7.208   2.525   7.865
24034SOL     OW74108   5.922   3.383   8.765
24034SOL    HW174109   5.915   3.344   8.675
24034SOL    HW274110   6.017   3.406   8.766
24035SOL     OW74111   6.028   2.590   9.075
24035SOL    HW174112   6.084   2.634   9.009
24035SOL    HW274113   6.056   2.498   9.065
24036SOL     OW74114   7.207   2.632   9.131
24036SOL    HW174115   7.119   2.675   9.132
24036SOL    HW274116   7.248   2.677   9.054
24037SOL     OW74117   6.576   1.954   9.186
24037SOL    HW174118   6.634   2.031   9.196
24037SOL    HW274119   6.638   1.891   9.144
24038SOL     OW74120   6.107   1.858   9.206
24038SOL    HW174121   6.052   1.810   9.142
24038SOL    HW274122   6.057   1.941   9.216
24039SOL     OW74123   6.191   2.760   8.505
24039SOL    HW174124   6.210   2.855   8.507
24039SOL    HW274125   6.126   2.749   8.576
24040SOL     OW74126   6.972   2.627   8.422
24040SOL    HW174127   6.877   2.640   8.405
24040SOL    HW274128   6.984   2.682   8.502
24041SOL     OW74129   6.816   2.385   7.714
24041SOL    HW174130   6.814   2.306   7.770
24041SOL    HW274131   6.756   2.444   7.764
24042SOL     OW74132   5.898   2.062   8.701
24042SOL    HW174133   5.842   2.094   8.774
24042SOL    HW274134   5.868   1.970   8.692
24043SOL     OW74135   5.629   3.162   8.721
24043SOL    HW174136   5.644   3.106   8.800
24043SOL    HW274137   5.632   3.252   8.756
24044SOL     OW74138   6.302   2.502   8.490
24044SOL    HW174139   6.390   2.493   8.450
24044SOL    HW274140   6.282   2.597   8.485
24045SOL     OW74141   7.347   2.804   9.287
24045SOL    HW174142   7.295   2.737   9.239
24045SOL    HW274143   7.287   2.827   9.359
24046SOL     OW74144   5.910   1.924   8.065
24046SOL    HW174145   5.875   2.014   8.081
24046SOL    HW274146   5.908   1.887   8.156
24047SOL     OW74147   7.181   2.241   7.796
24047SOL    HW174148   7.210   2.171   7.855
24047SOL    HW274149   7.171   2.318   7.856
24048SOL     OW74150   6.665   2.613   8.423
24048SOL    HW174151   6.633   2.636   8.513
24048SOL    HW274152   6.625   2.524   8.413
24049SOL     OW74153   6.556   3.431   9.152
24049SOL    HW174154   6.553   3.482   9.069
24049SOL    HW274155   6.587   3.344   9.121
24050SOL     OW74156   7.438   3.349   9.042
24050SOL    HW174157   7.465   3.385   8.955
24050SOL    HW274158   7.515   3.373   9.098
24051SOL     OW74159   5.932   2.759   9.252
24051SOL    HW174160   6.014   2.783   9.298
24051SOL    HW274161   5.962   2.686   9.194
24052SOL     OW74162   7.091   2.113   7.577
24052SOL    HW174163   7.019   2.061   7.617
24052SOL    HW274164   7.128   2.159   7.655
24053SOL     OW74165   6.882   2.702   7.477
24053SOL    HW174166   6.914   2.610   7.482
24053SOL    HW274167   6.907   2.726   7.385
24054SOL     OW74168   6.646   3.227   8.295
24054SOL    HW174169   6.668   3.150   8.238
24054SOL    HW274170   6.716   3.292   8.275
24055SOL     OW74171   5.870   2.677   8.448
24055SOL    HW174172   5.964   2.689   8.426
24055SOL    HW274173   5.869   2.584   8.474
24056SOL     OW74174   5.906   2.401   8.446
24056SOL    HW174175   5.879   2.309   8.427
24056SOL    HW274176   5.977   2.414   8.379
24057SOL     OW74177   6.741   2.228   9.142
24057SOL    HW174178   6.698   2.287   9.207
24057SOL    HW274179   6.828   2.269   9.132
24058SOL     OW74180   6.757   2.062   8.930
24058SOL    HW174181   6.752   2.126   9.005
24058SOL    HW274182   6.800   2.115   8.861
24059SOL     OW74183   5.561   3.177   7.663
24059SOL    HW174184   5.504   3.191   7.739
24059SOL    HW274185   5.588   3.083   7.678
24060SOL     OW74186   5.687   3.644   8.397
24060SOL    HW174187   5.656   3.567   8.344
24060SOL    HW274188   5.778   3.655   8.360
24061SOL     OW74189   6.071   3.449   8.377
24061SOL    HW174190   6.141   3.512   8.403
24061SOL    HW274191   6.121   3.386   8.321
24062SOL     OW74192   6.571   2.642   8.676
24062SOL    HW174193   6.632   2.618   8.748
24062SOL    HW274194   6.487   2.610   8.712
24063SOL     OW74195   5.616   2.376   8.558
24063SOL    HW174196   5.691   2.371   8.499
24063SOL    HW274197   5.658   2.384   8.644
24064SOL     OW74198   5.798   2.377   9.151
24064SOL    HW174199   5.864   2.340   9.091
24064SOL    HW274200   5.762   2.453   9.102
24065SOL     OW74201   6.978   2.784   9.106
24065SOL    HW174202   7.004   2.878   9.094
24065SOL    HW274203   6.943   2.760   9.019
24066SOL     OW74204   6.386   2.428   7.839
24066SOL    HW174205   6.401   2.365   7.768
24066SOL    HW274206   6.314   2.483   7.803
24067SOL     OW74207   7.198   2.461   8.602
24067SOL    HW174208   7.192   2.436   8.696
24067SOL    HW274209   7.290   2.432   8.582
24068SOL     OW74210   5.827   3.403   9.170
24068SOL    HW174211   5.824   3.475   9.234
24068SOL    HW274212   5.838   3.324   9.226
24069SOL     OW74213   6.182   2.343   8.693
24069SOL    HW174214   6.200   2.262   8.643
24069SOL    HW274215   6.235   2.409   8.646
24070SOL     OW74216   6.512   3.558   8.922
24070SOL    HW174217   6.496   3.527   8.832
24070SOL    HW274218   6.504   3.655   8.913
24071SOL     OW74219   6.023   2.342   7.646
24071SOL    HW174220   6.092   2.409   7.649
24071SOL    HW274221   5.942   2.396   7.641
24072SOL     OW74222   5.690   2.991   8.914
24072SOL    HW174223   5.709   2.939   8.995
24072SOL    HW274224   5.719   2.930   8.843
24073SOL     OW74225   6.922   2.901   8.689
24073SOL    HW174226   6.984   2.927   8.620
24073SOL    HW274227   6.839   2.943   8.657
24074SOL     OW74228   6.902   2.714   7.749
24074SOL    HW174229   6.817   2.688   7.787
24074SOL    HW274230   6.884   2.715   7.654
24075SOL     OW74231   7.340   3.607   8.578
24075SOL    HW174232   7.414   3.632   8.520
24075SOL    HW274233   7.332   3.511   8.559
24076SOL     OW74234   6.826   3.593   8.560
24076SOL    HW174235   6.911   3.617   8.520
24076SOL    HW274236   6.837   3.497   8.575
24077SOL     OW74237   5.688   3.119   8.468
24077SOL    HW174238   5.663   3.130   8.563
24077SOL    HW274239   5.619   3.058   8.437
24078SOL     OW74240   6.278   3.498   9.192
24078SOL    HW174241   6.239   3.583   9.167
24078SOL    HW274242   6.368   3.504   9.157
24079SOL     OW74243   7.264   2.000   7.943
24079SOL    HW174244   7.344   1.995   7.889
24079SOL    HW274245   7.265   1.917   7.994
24080SOL     OW74246   6.949   3.442   7.941
24080SOL    HW174247   7.008   3.455   7.865
24080SOL    HW274248   6.909   3.530   7.953
24081SOL     OW74249   5.735   3.649   9.282
24081SOL    HW174250   5.673   3.592   9.332
24081SOL    HW274251   5.784   3.692   9.355
24082SOL     OW74252   6.838   2.786   8.117
24082SOL    HW174253   6.918   2.732   8.124
24082SOL    HW274254   6.871   2.863   8.066
24083SOL     OW74255   6.403   3.134   8.873
24083SOL    HW174256   6.365   3.182   8.950
24083SOL    HW274257   6.329   3.139   8.811
24084SOL     OW74258   6.249   3.482   7.606
24084SOL    HW174259   6.266   3.494   7.510
24084SOL    HW274260   6.191   3.403   7.602
24085SOL     OW74261   7.204   3.573   8.830
24085SOL    HW174262   7.252   3.591   8.746
24085SOL    HW274263   7.191   3.663   8.865
24086SOL     OW74264   7.421   2.013   8.412
24086SOL    HW174265   7.450   1.927   8.377
24086SOL    HW274266   7.338   2.032   8.364
24087SOL     OW74267   5.839   2.169   8.148
24087SOL    HW174268   5.752   2.213   8.134
24087SOL    HW274269   5.847   2.171   8.244
24088SOL     OW74270   6.759   3.487   7.474
24088SOL    HW174271   6.774   3.392   7.483
24088SOL    HW274272   6.707   3.494   7.391
24089SOL     OW74273   6.405   2.865   8.837
24089SOL    HW174274   6.428   2.870   8.743
24089SOL    HW274275   6.406   2.959   8.864
24090SOL     OW74276   6.498   2.766   7.721
24090SOL    HW174277   6.569   2.807   7.668
24090SOL    HW274278   6.540   2.686   7.756
24091SOL     OW74279   7.122   3.493   7.484
24091SOL    HW174280   7.026   3.496   7.480
24091SOL    HW274281   7.145   3.491   7.388
24092SOL     OW74282   5.923   3.140   8.938
24092SOL    HW174283   5.923   3.207   8.867
24092SOL    HW274284   5.842   3.089   8.922
24093SOL     OW74285   7.184   3.162   8.705
24093SOL    HW174286   7.239   3.137   8.781
24093SOL    HW274287   7.129   3.234   8.743
24094SOL     OW74288   6.643   2.974   8.185
24094SOL    HW174289   6.565   2.926   8.217
24094SOL    HW274290   6.700   2.902   8.155
24095SOL     OW74291   6.628   2.085   8.427
24095SOL    HW174292   6.621   2.036   8.343
24095SOL    HW274293   6.624   2.011   8.491
24096SOL     OW74294   6.193   3.355   7.944
24096SOL    HW174295   6.253   3.317   7.878
24096SOL    HW274296   6.121   3.389   7.889
24097SOL     OW74297   7.302   2.229   8.830
24097SOL    HW174298   7.362   2.305   8.825
24097SOL    HW274299   7.348   2.163   8.773
24098SOL     OW74300   5.826   3.248   7.716
24098SOL    HW174301   5.733   3.221   7.716
24098SOL    HW274302   5.843   3.259   7.813
24099SOL     OW74303   5.719   2.874   9.149
24099SOL    HW174304   5.648   2.854   9.213
24099SOL    HW274305   5.799   2.839   9.196
24100SOL     OW74306   6.248   2.032   8.943
24100SOL    HW174307   6.332   2.063   8.904
24100SOL    HW274308   6.244   2.082   9.026
24101SOL     OW74309   5.683   2.216   7.493
24101SOL    HW174310   5.595   2.197   7.459
24101SOL    HW274311   5.714   2.284   7.431
24102SOL     OW74312   7.039   2.706   8.828
24102SOL    HW174313   6.997   2.778   8.778
24102SOL    HW274314   7.127   2.742   8.848
24103SOL     OW74315   5.628   2.039   7.749
24103SOL    HW174316   5.625   2.123   7.701
24103SOL    HW274317   5.712   2.002   7.716
24104SOL     OW74318   6.795   3.207   7.564
24104SOL    HW174319   6.711   3.161   7.567
24104SOL    HW274320   6.816   3.216   7.659
24105SOL     OW74321   6.204   2.677   8.883
24105SOL    HW174322   6.264   2.754   8.887
24105SOL    HW274323   6.269   2.604   8.886
24106SOL     OW74324   7.090   3.636   8.413
24106SOL    HW174325   7.127   3.683   8.337
24106SOL    HW274326   7.169   3.617   8.465
24107SOL     OW74327   6.333   2.368   9.215
24107SOL    HW174328   6.363   2.454   9.252
24107SOL    HW274329   6.345   2.386   9.121
24108SOL     OW74330   7.045   3.044   9.081
24108SOL    HW174331   7.044   3.050   9.179
24108SOL    HW274332   7.138   3.068   9.061
24109SOL     OW74333   5.964   3.594   9.013
24109SOL    HW174334   5.878   3.638   8.998
24109SOL    HW274335   5.935   3.509   9.050
24110SOL     OW74336   7.300   2.740   8.668
24110SOL    HW174337   7.265   2.655   8.636
24110SOL    HW274338   7.258   2.805   8.610
24111SOL     OW74339   6.787   2.195   7.928
24111SOL    HW174340   6.856   2.126   7.923
24111SOL    HW274341   6.820   2.251   8.001
24112SOL     OW74342   6.186   2.606   8.104
24112SOL    HW174343   6.221   2.696   8.095
24112SOL    HW274344   6.108   2.609   8.047
24113SOL     OW74345   7.363   2.235   9.088
24113SOL    HW174346   7.332   2.241   8.995
24113SOL    HW274347   7.287   2.192   9.131
24114SOL     OW74348   7.299   2.795   8.934
24114SOL    HW174349   7.329   2.886   8.949
24114SOL    HW274350   7.332   2.775   8.845
24115SOL     OW74351   6.438   3.222   7.474
24115SOL    HW174352   6.414   3.243   7.566
24115SOL    HW274353   6.460   3.308   7.435
24116SOL     OW74354   6.223   3.680   8.378
24116SOL    HW174355   6.221   3.774   8.354
24116SOL    HW274356   6.317   3.660   8.381
24117SOL     OW74357   6.465   2.799   8.306
24117SOL    HW174358   6.517   2.732   8.351
24117SOL    HW274359   6.436   2.856   8.379
24118SOL     OW74360   6.689   2.867   7.556
24118SOL    HW174361   6.656   2.912   7.475
24118SOL    HW274362   6.758   2.809   7.518
24119SOL     OW74363   7.456   3.427   8.280
24119SOL    HW174364   7.363   3.424   8.256
24119SOL    HW274365   7.464   3.357   8.345
24120SOL     OW74366   5.825   3.180   9.319
24120SOL    HW174367   5.761   3.109   9.310
24120SOL    HW274368   5.820   3.199   9.415
24121SOL     OW74369   5.672   3.101   8.104
24121SOL    HW174370   5.678   3.051   8.187
24121SOL    HW274371   5.745   3.062   8.054
24122SOL     OW74372   6.254   3.262   9.061
24122SOL    HW174373   6.184   3.206   9.099
24122SOL    HW274374   6.245   3.344   9.114
24123SOL     OW74375   7.411   2.027   8.677
24123SOL    HW174376   7.423   1.932   8.691
24123SOL    HW274377   7.415   2.031   8.579
24124SOL     OW74378   6.012   2.309   7.979
24124SOL    HW174379   6.067   2.244   7.934
24124SOL    HW274380   5.965   2.257   8.046
24125SOL     OW74381   7.311   3.349   8.529
24125SOL    HW174382   7.225   3.318   8.496
24125SOL    HW274383   7.326   3.287   8.602
24126SOL     OW74384   5.915   2.390   8.721
24126SOL    HW174385   6.009   2.371   8.742
24126SOL    HW274386   5.917   2.379   8.624
24127SOL     OW74387   6.404   3.458   8.123
24127SOL    HW174388   6.391   3.508   8.040
24127SOL    HW274389   6.320   3.410   8.131
24128SOL     OW74390   7.026   2.103   8.544
24128SOL    HW174391   7.059   2.022   8.586
24128SOL    HW274392   6.973   2.143   8.617
24129SOL     OW74393   6.604   1.855   8.606
24129SOL    HW174394   6.552   1.784   8.567
24129SOL    HW274395   6.696   1.820   8.599
24130SOL     OW74396   6.373   3.206   7.761
24130SOL    HW174397   6.343   3.114   7.757
24130SOL    HW274398   6.449   3.201   7.820
24131SOL     OW74399   6.185   3.424   8.711
24131SOL    HW174400   6.187   3.507   8.763
24131SOL    HW274401   6.279   3.418   8.688
24132SOL     OW74402   6.911   1.895   7.669
24132SOL    HW174403   6.924   1.857   7.581
24132SOL    HW274404   6.822   1.857   7.690
24133SOL     OW74405   6.885   2.340   8.151
24133SOL    HW174406   6.822   2.413   8.138
24133SOL    HW274407   6.854   2.302   8.235
24134SOL     OW74408   7.183   2.081   8.309
24134SOL    HW174409   7.119   2.071   8.381
24134SOL    HW274410   7.173   2.174   8.284
24135SOL     OW74411   5.640   2.932   7.755
24135SOL    HW174412   5.734   2.911   7.739
24135SOL    HW274413   5.606   2.842   7.770
24136SOL     OW74414   6.459   3.512   7.780
24136SOL    HW174415   6.383   3.497   7.721
24136SOL    HW274416   6.437   3.594   7.828
24137SOL     OW74417   5.817   2.484   9.438
24137SOL    HW174418   5.724   2.483   9.466
24137SOL    HW274419   5.814   2.471   9.343
24138SOL     OW74420   5.839   2.138  10.292
24138SOL    HW174421   5.852   2.115  10.386
24138SOL    HW274422   5.751   2.099  10.276
24139SOL     OW74423   5.596   2.270   9.928
24139SOL    HW174424   5.517   2.293   9.980
24139SOL    HW274425   5.577   2.179   9.904
24140SOL     OW74426   6.150   3.165  10.463
24140SOL    HW174427   6.054   3.152  10.455
24140SOL    HW274428   6.154   3.246  10.515
24141SOL     OW74429   7.140   3.382  10.024
24141SOL    HW174430   7.106   3.353  10.111
24141SOL    HW274431   7.065   3.369   9.964
24142SOL     OW74432   6.715   2.541   9.995
24142SOL    HW174433   6.751   2.631   9.989
24142SOL    HW274434   6.653   2.548  10.068
24143SOL     OW74435   7.356   2.469   9.546
24143SOL    HW174436   7.342   2.459   9.450
24143SOL    HW274437   7.304   2.396   9.582
24144SOL     OW74438   6.331   3.015  10.341
24144SOL    HW174439   6.261   3.065  10.387
24144SOL    HW274440   6.369   3.086  10.286
24145SOL     OW74441   6.481   2.634   0.010
24145SOL    HW174442   6.454   2.700   0.075
24145SOL    HW274443   6.515   2.689  11.039
24146SOL     OW74444   6.278   2.878   9.977
24146SOL    HW174445   6.343   2.860  10.046
24146SOL    HW274446   6.208   2.925  10.024
24147SOL     OW74447   5.898   3.291  10.384
24147SOL    HW174448   5.828   3.245  10.335
24147SOL    HW274449   5.950   3.337  10.316
24148SOL     OW74450   7.059   3.351  10.674
24148SOL    HW174451   7.103   3.438  10.678
24148SOL    HW274452   6.983   3.364  10.734
24149SOL     OW74453   6.048   2.262  10.764
24149SOL    HW174454   6.120   2.197  10.772
24149SOL    HW274455   5.974   2.218  10.807
24150SOL     OW74456   7.206   2.305  10.053
24150SOL    HW174457   7.136   2.343   9.998
24150SOL    HW274458   7.211   2.368  10.126
24151SOL     OW74459   5.811   3.571   9.789
24151SOL    HW174460   5.832   3.652   9.840
24151SOL    HW274461   5.874   3.578   9.715
24152SOL     OW74462   5.832   3.288   9.841
24152SOL    HW174463   5.833   3.385   9.851
24152SOL    HW274464   5.765   3.260   9.905
24153SOL     OW74465   5.842   2.939  10.175
24153SOL    HW174466   5.848   2.854  10.222
24153SOL    HW274467   5.800   2.995  10.242
24154SOL     OW74468   6.185   3.662  10.728
24154SOL    HW174469   6.111   3.637  10.787
24154SOL    HW274470   6.200   3.755  10.753
24155SOL     OW74471   6.153   2.858   9.432
24155SOL    HW174472   6.202   2.907   9.363
24155SOL    HW274473   6.196   2.891   9.512
24156SOL     OW74474   7.176   1.981  10.796
24156SOL    HW174475   7.173   2.067  10.753
24156SOL    HW274476   7.167   2.001  10.890
24157SOL     OW74477   5.695   2.529   9.867
24157SOL    HW174478   5.676   2.435   9.882
24157SOL    HW274479   5.695   2.565   9.959
24158SOL     OW74480   7.434   3.608   9.657
24158SOL    HW174481   7.508   3.589   9.718
24158SOL    HW274482   7.456   3.699   9.630
24159SOL     OW74483   5.573   3.449   9.427
24159SOL    HW174484   5.594   3.359   9.455
24159SOL    HW274485   5.578   3.500   9.510
24160SOL     OW74486   7.270   2.768   9.911
24160SOL    HW174487   7.340   2.732   9.853
24160SOL    HW274488   7.233   2.838   9.854
24161SOL     OW74489   7.221   2.981   9.750
24161SOL    HW174490   7.313   2.980   9.718
24161SOL    HW274491   7.229   3.042   9.826
24162SOL     OW74492   5.700   2.598  10.899
24162SOL    HW174493   5.783   2.624  10.942
24162SOL    HW274494   5.651   2.681  10.901
24163SOL     OW74495   6.180   3.271  10.072
24163SOL    HW174496   6.140   3.182  10.083
24163SOL    HW274497   6.172   3.279   9.975
24164SOL     OW74498   6.889   3.112  10.733
24164SOL    HW174499   6.913   3.061  10.653
24164SOL    HW274500   6.930   3.061  10.803
24165SOL     OW74501   6.428   1.855   9.822
24165SOL    HW174502   6.453   1.949   9.809
24165SOL    HW274503   6.332   1.863   9.834
24166SOL     OW74504   5.776   2.822  10.607
24166SOL    HW174505   5.863   2.799  10.570
24166SOL    HW274506   5.716   2.760  10.564
24167SOL     OW74507   7.126   2.840   9.506
24167SOL    HW174508   7.045   2.796   9.538
24167SOL    HW274509   7.161   2.880   9.587
24168SOL     OW74510   6.824   3.671  10.904
24168SOL    HW174511   6.785   3.720  10.831
24168SOL    HW274512   6.819   3.579  10.870
24169SOL     OW74513   5.861   2.148  11.074
24169SOL    HW174514   5.943   2.186   0.006
24169SOL    HW274515   5.854   2.067   0.025
24170SOL     OW74516   7.057   3.278  10.268
24170SOL    HW174517   6.990   3.295  10.338
24170SOL    HW274518   7.034   3.188  10.238
24171SOL     OW74519   7.252   3.593   9.906
24171SOL    HW174520   7.234   3.556   9.819
24171SOL    HW274521   7.221   3.520   9.964
24172SOL     OW74522   6.175   2.576   9.581
24172SOL    HW174523   6.176   2.665   9.543
24172SOL    HW274524   6.096   2.578   9.638
24173SOL     OW74525   6.861   2.225  10.248
24173SOL    HW174526   6.774   2.181  10.252
24173SOL    HW274527   6.914   2.173  10.311
24174SOL     OW74528   7.164   3.506   9.624
24174SOL    HW174529   7.257   3.531   9.624
24174SOL    HW274530   7.148   3.497   9.528
24175SOL     OW74531   6.408   2.475  10.770
24175SOL    HW174532   6.382   2.449  10.861
24175SOL    HW274533   6.357   2.412  10.715
24176SOL     OW74534   6.583   2.763  10.885
24176SOL    HW174535   6.612   2.680  10.842
24176SOL    HW274536   6.516   2.797  10.823
24177SOL     OW74537   6.570   2.254  10.558
24177SOL    HW174538   6.482   2.270  10.596
24177SOL    HW274539   6.549   2.211  10.474
24178SOL     OW74540   6.624   2.534   9.719
24178SOL    HW174541   6.641   2.553   9.813
24178SOL    HW274542   6.536   2.491   9.722
24179SOL     OW74543   5.687   2.661  10.104
24179SOL    HW174544   5.761   2.669  10.166
24179SOL    HW274545   5.638   2.744  10.120
24180SOL     OW74546   5.699   3.705  10.869
24180SOL    HW174547   5.690   3.656  10.952
24180SOL    HW274548   5.608   3.714  10.841
24181SOL     OW74549   6.463   2.238   9.517
24181SOL    HW174550   6.489   2.290   9.440
24181SOL    HW274551   6.488   2.149   9.491
24182SOL     OW74552   6.949   3.015   9.882
24182SOL    HW174553   7.022   3.003   9.820
24182SOL    HW274554   6.892   3.074   9.830
24183SOL     OW74555   6.150   2.049  10.194
24183SOL    HW174556   6.153   2.065  10.290
24183SOL    HW274557   6.137   2.138  10.157
24184SOL     OW74558   6.576   3.311   9.783
24184SOL    HW174559   6.538   3.378   9.722
24184SOL    HW274560   6.588   3.361   9.864
24185SOL     OW74561   5.933   3.670  10.157
24185SOL    HW174562   5.976   3.586  10.181
24185SOL    HW274563   6.000   3.736  10.181
24186SOL     OW74564   7.408   2.913  10.170
24186SOL    HW174565   7.348   2.899  10.096
24186SOL    HW274566   7.348   2.908  10.246
24187SOL     OW74567   6.817   3.420  10.796
24187SOL    HW174568   6.792   3.356  10.864
24187SOL    HW274569   6.755   3.396  10.725
24188SOL     OW74570   5.892   2.819   9.561
24188SOL    HW174571   5.974   2.836   9.512
24188SOL    HW274572   5.862   2.736   9.522
24189SOL     OW74573   7.068   2.618  10.022
24189SOL    HW174574   7.078   2.589  10.114
24189SOL    HW274575   7.151   2.665  10.004
24190SOL     OW74576   6.060   3.149  11.037
24190SOL    HW174577   6.028   3.154  10.944
24190SOL    HW274578   6.014   3.070  11.069
24191SOL     OW74579   6.681   3.641   9.551
24191SOL    HW174580   6.611   3.590   9.595
24191SOL    HW274581   6.699   3.586   9.472
24192SOL     OW74582   5.768   2.150  10.784
24192SOL    HW174583   5.704   2.218  10.809
24192SOL    HW274584   5.780   2.103  10.868
24193SOL     OW74585   7.211   3.231   9.407
24193SOL    HW174586   7.172   3.317   9.387
24193SOL    HW274587   7.144   3.168   9.375
24194SOL     OW74588   6.045   3.598   9.629
24194SOL    HW174589   6.093   3.650   9.697
24194SOL    HW274590   6.117   3.566   9.573
24195SOL     OW74591   6.983   1.973   9.746
24195SOL    HW174592   6.979   1.926   9.661
24195SOL    HW274593   7.079   1.983   9.761
24196SOL     OW74594   5.822   3.650  10.538
24196SOL    HW174595   5.893   3.595  10.574
24196SOL    HW274596   5.807   3.611  10.451
24197SOL     OW74597   6.549   3.582  10.180
24197SOL    HW174598   6.618   3.519  10.201
24197SOL    HW274599   6.501   3.533  10.110
24198SOL     OW74600   5.954   2.561   9.761
24198SOL    HW174601   5.979   2.467   9.772
24198SOL    HW274602   5.860   2.558   9.788
24199SOL     OW74603   6.200   1.970   9.440
24199SOL    HW174604   6.283   2.001   9.403
24199SOL    HW274605   6.164   1.920   9.365
24200SOL     OW74606   6.363   2.131  11.030
24200SOL    HW174607   6.445   2.097  11.066
24200SOL    HW274608   6.298   2.098  11.095
24201SOL     OW74609   6.486   3.405  10.499
24201SOL    HW174610   6.463   3.366  10.413
24201SOL    HW274611   6.544   3.338  10.539
24202SOL     OW74612   6.930   2.452  10.737
24202SOL    HW174613   6.983   2.417  10.809
24202SOL    HW274614   6.972   2.539  10.721
24203SOL     OW74615   6.406   3.269  10.262
24203SOL    HW174616   6.493   3.261  10.217
24203SOL    HW274617   6.344   3.267  10.188
24204SOL     OW74618   6.525   2.400  10.216
24204SOL    HW174619   6.497   2.391  10.121
24204SOL    HW274620   6.543   2.308  10.238
24205SOL     OW74621   6.144   1.904   9.814
24205SOL    HW174622   6.068   1.914   9.874
24205SOL    HW274623   6.138   1.988   9.764
24206SOL     OW74624   7.030   3.043   9.344
24206SOL    HW174625   7.058   2.966   9.398
24206SOL    HW274626   6.939   3.057   9.371
24207SOL     OW74627   5.876   1.897   9.497
24207SOL    HW174628   5.931   1.971   9.468
24207SOL    HW274629   5.943   1.841   9.541
24208SOL     OW74630   6.520   2.116   9.801
24208SOL    HW174631   6.496   2.170   9.724
24208SOL    HW274632   6.616   2.131   9.805
24209SOL     OW74633   6.685   2.548  10.748
24209SOL    HW174634   6.620   2.476  10.757
24209SOL    HW274635   6.771   2.501  10.747
24210SOL     OW74636   6.804   3.433  10.109
24210SOL    HW174637   6.810   3.493  10.033
24210SOL    HW274638   6.875   3.464  10.166
24211SOL     OW74639   6.053   3.029  10.045
24211SOL    HW174640   5.977   2.997  10.099
24211SOL    HW274641   6.020   3.003   9.956
24212SOL     OW74642   6.844   3.673   9.912
24212SOL    HW174643   6.893   3.743   9.864
24212SOL    HW274644   6.794   3.724   9.978
24213SOL     OW74645   6.654   2.404   9.326
24213SOL    HW174646   6.600   2.483   9.308
24213SOL    HW274647   6.720   2.435   9.391
24214SOL     OW74648   5.662   2.416  10.701
24214SOL    HW174649   5.756   2.418  10.675
24214SOL    HW274650   5.658   2.491  10.765
24215SOL     OW74651   6.148   2.074  10.469
24215SOL    HW174652   6.190   2.007  10.525
24215SOL    HW274653   6.057   2.074  10.502
24216SOL     OW74654   6.453   2.342   9.973
24216SOL    HW174655   6.399   2.383   9.903
24216SOL    HW274656   6.467   2.252   9.940
24217SOL     OW74657   6.634   1.939  10.068
24217SOL    HW174658   6.591   1.929   9.982
24217SOL    HW274659   6.601   1.860  10.116
24218SOL     OW74660   7.015   3.023  10.190
24218SOL    HW174661   6.942   2.963  10.211
24218SOL    HW274662   7.010   3.023  10.093
24219SOL     OW74663   7.061   2.454  10.286
24219SOL    HW174664   7.009   2.372  10.290
24219SOL    HW274665   7.123   2.446  10.361
24220SOL     OW74666   7.429   2.685   9.705
24220SOL    HW174667   7.481   2.626   9.764
24220SOL    HW274668   7.415   2.627   9.628
24221SOL     OW74669   6.084   3.282   9.432
24221SOL    HW174670   6.004   3.267   9.483
24221SOL    HW274671   6.075   3.222   9.357
24222SOL     OW74672   7.263   3.131   9.968
24222SOL    HW174673   7.361   3.136   9.973
24222SOL    HW274674   7.234   3.221   9.989
24223SOL     OW74675   6.985   2.452   9.370
24223SOL    HW174676   6.939   2.420   9.450
24223SOL    HW274677   7.077   2.435   9.392
24224SOL     OW74678   6.107   2.110   9.647
24224SOL    HW174679   6.148   2.063   9.571
24224SOL    HW274680   6.077   2.192   9.601
24225SOL     OW74681   7.338   3.122  10.953
24225SOL    HW174682   7.413   3.063  10.939
24225SOL    HW274683   7.375   3.207  10.919
24226SOL     OW74684   6.631   3.245  10.676
24226SOL    HW174685   6.555   3.193  10.708
24226SOL    HW274686   6.706   3.185  10.691
24227SOL     OW74687   6.700   3.098  10.413
24227SOL    HW174688   6.614   3.095  10.456
24227SOL    HW274689   6.678   3.137  10.326
24228SOL     OW74690   7.215   2.965  10.373
24228SOL    HW174691   7.207   3.026  10.450
24228SOL    HW274692   7.144   3.000  10.315
24229SOL     OW74693   6.490   1.977  10.687
24229SOL    HW174694   6.526   1.940  10.605
24229SOL    HW274695   6.571   2.010  10.731
24230SOL     OW74696   6.301   2.935   9.675
24230SOL    HW174697   6.287   2.907   9.767
24230SOL    HW274698   6.369   2.871   9.644
24231SOL     OW74699   6.027   2.674  10.577
24231SOL    HW174700   6.091   2.675  10.651
24231SOL    HW274701   5.986   2.587  10.589
24232SOL     OW74702   6.851   2.232  10.591
24232SOL    HW174703   6.875   2.316  10.634
24232SOL    HW274704   6.769   2.255  10.543
24233SOL     OW74705   5.659   3.428  10.645
24233SOL    HW174706   5.643   3.520  10.621
24233SOL    HW274707   5.757   3.422  10.646
24234SOL     OW74708   5.954   2.964   9.808
24234SOL    HW174709   6.000   3.022   9.747
24234SOL    HW274710   5.930   2.888   9.752
24235SOL     OW74711   6.125   2.402  10.153
24235SOL    HW174712   6.152   2.470  10.088
24235SOL    HW274713   6.188   2.416  10.226
24236SOL     OW74714   6.811   3.192   9.705
24236SOL    HW174715   6.852   3.273   9.737
24236SOL    HW274716   6.719   3.205   9.732
24237SOL     OW74717   6.874   3.319  10.468
24237SOL    HW174718   6.932   3.310  10.545
24237SOL    HW274719   6.814   3.244  10.476
24238SOL     OW74720   7.173   2.474   9.791
24238SOL    HW174721   7.117   2.526   9.851
24238SOL    HW274722   7.204   2.539   9.727
24239SOL     OW74723   5.934   3.367  10.634
24239SOL    HW174724   5.921   3.338  10.541
24239SOL    HW274725   6.031   3.381  10.638
24240SOL     OW74726   6.038   2.571  10.935
24240SOL    HW174727   6.101   2.615  10.873
24240SOL    HW274728   6.045   2.479  10.908
24241SOL     OW74729   7.201   2.630  10.998
24241SOL    HW174730   7.119   2.658  10.958
24241SOL    HW274731   7.266   2.680  10.945
24242SOL     OW74732   6.142   2.760  10.340
24242SOL    HW174733   6.190   2.845  10.345
24242SOL    HW274734   6.116   2.743  10.433
24243SOL     OW74735   6.905   2.698  10.360
24243SOL    HW174736   6.829   2.678  10.304
24243SOL    HW274737   6.966   2.627  10.336
24244SOL     OW74738   6.815   2.383   9.579
24244SOL    HW174739   6.818   2.313   9.646
24244SOL    HW274740   6.746   2.440   9.616
24245SOL     OW74741   5.871   2.062  10.545
24245SOL    HW174742   5.831   2.092  10.629
24245SOL    HW274743   5.854   1.965  10.547
24246SOL     OW74744   5.637   3.145  10.595
24246SOL    HW174745   5.668   3.095  10.674
24246SOL    HW274746   5.631   3.236  10.628
24247SOL     OW74747   6.293   2.504  10.344
24247SOL    HW174748   6.376   2.497  10.294
24247SOL    HW274749   6.256   2.590  10.317
24248SOL     OW74750   5.886   1.917   9.927
24248SOL    HW174751   5.868   2.011   9.948
24248SOL    HW274752   5.897   1.878  10.015
24249SOL     OW74753   7.185   2.241   9.662
24249SOL    HW174754   7.220   2.173   9.722
24249SOL    HW274755   7.177   2.318   9.721
24250SOL     OW74756   6.636   2.631  10.270
24250SOL    HW174757   6.620   2.645  10.365
24250SOL    HW274758   6.607   2.538  10.259
24251SOL     OW74759   6.578   3.412  10.968
24251SOL    HW174760   6.565   3.478  10.896
24251SOL    HW274761   6.538   3.333  10.928
24252SOL     OW74762   7.445   3.355  10.886
24252SOL    HW174763   7.464   3.391  10.798
24252SOL    HW274764   7.522   3.383  10.939
24253SOL     OW74765   5.959   2.775  11.070
24253SOL    HW174766   6.025   2.776   0.039
24253SOL    HW274767   5.984   2.694  11.020
24254SOL     OW74768   7.091   2.113   9.443
24254SOL    HW174769   7.013   2.064   9.473
24254SOL    HW274770   7.126   2.155   9.524
24255SOL     OW74771   6.875   2.697   9.334
24255SOL    HW174772   6.918   2.610   9.342
24255SOL    HW274773   6.912   2.729   9.249
24256SOL     OW74774   6.646   3.223  10.163
24256SOL    HW174775   6.652   3.149  10.100
24256SOL    HW274776   6.715   3.286  10.134
24257SOL     OW74777   5.879   2.682  10.300
24257SOL    HW174778   5.974   2.698  10.310
24257SOL    HW274779   5.873   2.586  10.314
24258SOL     OW74780   5.912   2.396  10.307
24258SOL    HW174781   5.888   2.302  10.294
24258SOL    HW274782   5.984   2.406  10.240
24259SOL     OW74783   6.731   2.063  10.778
24259SOL    HW174784   6.761   2.118  10.851
24259SOL    HW274785   6.766   2.110  10.701
24260SOL     OW74786   5.572   3.179   9.501
24260SOL    HW174787   5.477   3.187   9.482
24260SOL    HW274788   5.580   3.089   9.538
24261SOL     OW74789   5.681   3.644  10.244
24261SOL    HW174790   5.654   3.566  10.192
24261SOL    HW274791   5.774   3.658  10.213
24262SOL     OW74792   6.075   3.453  10.251
24262SOL    HW174793   6.150   3.503  10.287
24262SOL    HW274794   6.119   3.389  10.192
24263SOL     OW74795   6.562   2.657  10.539
24263SOL    HW174796   6.622   2.619  10.606
24263SOL    HW274797   6.478   2.615  10.563
24264SOL     OW74798   5.614   2.364  10.423
24264SOL    HW174799   5.692   2.372  10.367
24264SOL    HW274800   5.653   2.361  10.511
24265SOL     OW74801   6.379   2.429   9.697
24265SOL    HW174802   6.395   2.368   9.623
24265SOL    HW274803   6.306   2.484   9.662
24266SOL     OW74804   7.242   2.483  10.504
24266SOL    HW174805   7.227   2.407  10.562
24266SOL    HW274806   7.324   2.456  10.458
24267SOL     OW74807   5.831   3.405  11.031
24267SOL    HW174808   5.781   3.438   0.008
24267SOL    HW274809   5.879   3.331  11.069
24268SOL     OW74810   6.289   2.335  10.573
24268SOL    HW174811   6.234   2.261  10.545
24268SOL    HW274812   6.274   2.401  10.502
24269SOL     OW74813   6.535   3.560  10.739
24269SOL    HW174814   6.511   3.518  10.654
24269SOL    HW274815   6.498   3.650  10.731
24270SOL     OW74816   6.028   2.330   9.513
24270SOL    HW174817   6.095   2.401   9.513
24270SOL    HW274818   5.947   2.382   9.496
24271SOL     OW74819   5.741   3.001  10.792
24271SOL    HW174820   5.736   2.945  10.873
24271SOL    HW274821   5.756   2.934  10.722
24272SOL     OW74822   6.894   2.912  10.539
24272SOL    HW174823   6.909   2.839  10.475
24272SOL    HW274824   6.825   2.964  10.495
24273SOL     OW74825   6.893   2.722   9.598
24273SOL    HW174826   6.808   2.695   9.635
24273SOL    HW274827   6.878   2.715   9.502
24274SOL     OW74828   7.346   3.615  10.436
24274SOL    HW174829   7.410   3.635  10.366
24274SOL    HW274830   7.337   3.518  10.428
24275SOL     OW74831   6.836   3.597  10.451
24275SOL    HW174832   6.921   3.617  10.409
24275SOL    HW274833   6.842   3.500  10.461
24276SOL     OW74834   5.694   3.105  10.335
24276SOL    HW174835   5.671   3.117  10.430
24276SOL    HW274836   5.609   3.077  10.299
24277SOL     OW74837   7.272   1.993   9.802
24277SOL    HW174838   7.350   1.981   9.745
24277SOL    HW274839   7.269   1.909   9.852
24278SOL     OW74840   6.947   3.449   9.794
24278SOL    HW174841   7.010   3.476   9.725
24278SOL    HW274842   6.906   3.534   9.820
24279SOL     OW74843   6.839   2.785   9.989
24279SOL    HW174844   6.920   2.732  10.001
24279SOL    HW274845   6.873   2.860   9.937
24280SOL     OW74846   6.399   3.117  10.748
24280SOL    HW174847   6.375   3.155  10.834
24280SOL    HW274848   6.324   3.145  10.693
24281SOL     OW74849   6.251   3.485   9.469
24281SOL    HW174850   6.268   3.495   9.374
24281SOL    HW274851   6.197   3.403   9.467
24282SOL     OW74852   7.201   3.579  10.676
24282SOL    HW174853   7.260   3.592  10.600
24282SOL    HW274854   7.201   3.666  10.719
24283SOL     OW74855   7.432   2.029  10.273
24283SOL    HW174856   7.451   1.938  10.244
24283SOL    HW274857   7.344   2.048  10.232
24284SOL     OW74858   5.839   2.172  10.006
24284SOL    HW174859   5.759   2.225   9.985
24284SOL    HW274860   5.850   2.185  10.101
24285SOL     OW74861   6.765   3.488   9.342
24285SOL    HW174862   6.776   3.392   9.355
24285SOL    HW274863   6.708   3.493   9.263
24286SOL     OW74864   6.408   2.847  10.704
24286SOL    HW174865   6.451   2.831  10.618
24286SOL    HW274866   6.419   2.943  10.717
24287SOL     OW74867   6.486   2.773   9.580
24287SOL    HW174868   6.560   2.809   9.527
24287SOL    HW274869   6.523   2.692   9.617
24288SOL     OW74870   7.124   3.498   9.348
24288SOL    HW174871   7.028   3.503   9.337
24288SOL    HW274872   7.155   3.493   9.255
24289SOL     OW74873   5.958   3.153  10.797
24289SOL    HW174874   5.932   3.227  10.739
24289SOL    HW274875   5.878   3.097  10.795
24290SOL     OW74876   7.191   3.147  10.570
24290SOL    HW174877   7.276   3.148  10.619
24290SOL    HW274878   7.141   3.220  10.613
24291SOL     OW74879   6.634   2.983  10.031
24291SOL    HW174880   6.559   2.932  10.066
24291SOL    HW274881   6.700   2.913  10.018
24292SOL     OW74882   6.626   2.096  10.288
24292SOL    HW174883   6.617   2.051  10.201
24292SOL    HW274884   6.617   2.021  10.349
24293SOL     OW74885   6.197   3.336   9.803
24293SOL    HW174886   6.253   3.305   9.730
24293SOL    HW274887   6.129   3.387   9.757
24294SOL     OW74888   7.292   2.252  10.689
24294SOL    HW174889   7.360   2.320  10.700
24294SOL    HW274890   7.335   2.192  10.623
24295SOL     OW74891   5.824   3.247   9.577
24295SOL    HW174892   5.731   3.218   9.575
24295SOL    HW274893   5.838   3.261   9.674
24296SOL     OW74894   5.714   2.871  11.022
24296SOL    HW174895   5.652   2.857  11.093
24296SOL    HW274896   5.799   2.838  11.057
24297SOL     OW74897   6.250   2.069  10.782
24297SOL    HW174898   6.336   2.044  10.744
24297SOL    HW274899   6.275   2.092  10.873
24298SOL     OW74900   5.687   2.202   9.321
24298SOL    HW174901   5.592   2.217   9.313
24298SOL    HW274902   5.722   2.271   9.261
24299SOL     OW74903   7.037   2.711  10.732
24299SOL    HW174904   6.973   2.767  10.684
24299SOL    HW274905   7.120   2.737  10.690
24300SOL     OW74906   5.637   2.025   9.603
24300SOL    HW174907   5.627   2.118   9.577
24300SOL    HW274908   5.726   2.005   9.571
24301SOL     OW74909   6.788   3.214   9.424
24301SOL    HW174910   6.711   3.157   9.433
24301SOL    HW274911   6.817   3.221   9.517
24302SOL     OW74912   6.219   2.672  10.765
24302SOL    HW174913   6.279   2.746  10.747
24302SOL    HW274914   6.281   2.598  10.771
24303SOL     OW74915   7.092   3.640  10.298
24303SOL    HW174916   7.135   3.658  10.214
24303SOL    HW274917   7.165   3.616  10.356
24304SOL     OW74918   6.306   2.422  11.013
24304SOL    HW174919   6.344   2.482  11.079
24304SOL    HW274920   6.328   2.334  11.047
24305SOL     OW74921   5.956   3.586  10.870
24305SOL    HW174922   5.878   3.641  10.850
24305SOL    HW274923   5.918   3.518  10.929
24306SOL     OW74924   7.270   2.755  10.577
24306SOL    HW174925   7.261   2.663  10.547
24306SOL    HW274926   7.246   2.807  10.498
24307SOL     OW74927   6.801   2.189   9.786
24307SOL    HW174928   6.864   2.116   9.777
24307SOL    HW274929   6.840   2.239   9.861
24308SOL     OW74930   6.184   2.606   9.965
24308SOL    HW174931   6.205   2.700   9.963
24308SOL    HW274932   6.115   2.598   9.897
24309SOL     OW74933   7.357   2.189  10.942
24309SOL    HW174934   7.322   2.206  10.852
24309SOL    HW274935   7.278   2.193  10.996
24310SOL     OW74936   7.349   2.803  10.828
24310SOL    HW174937   7.348   2.899  10.828
24310SOL    HW274938   7.335   2.782  10.733
24311SOL     OW74939   6.432   3.228   9.345
24311SOL    HW174940   6.408   3.241   9.438
24311SOL    HW274941   6.460   3.315   9.314
24312SOL     OW74942   6.263   3.657  10.272
24312SOL    HW174943   6.239   3.743  10.234
24312SOL    HW274944   6.343   3.633  10.223
24313SOL     OW74945   6.465   2.821  10.169
24313SOL    HW174946   6.522   2.749  10.201
24313SOL    HW274947   6.438   2.866  10.250
24314SOL     OW74948   6.682   2.865   9.413
24314SOL    HW174949   6.644   2.915   9.338
24314SOL    HW274950   6.738   2.800   9.367
24315SOL     OW74951   7.454   3.438  10.165
24315SOL    HW174952   7.368   3.418  10.127
24315SOL    HW274953   7.480   3.353  10.204
24316SOL     OW74954   5.677   3.113   9.991
24316SOL    HW174955   5.684   3.062  10.072
24316SOL    HW274956   5.756   3.081   9.944
24317SOL     OW74957   6.281   3.278  10.944
24317SOL    HW174958   6.210   3.223  10.981
24317SOL    HW274959   6.231   3.353  10.910
24318SOL     OW74960   7.399   2.066  10.533
24318SOL    HW174961   7.416   1.973  10.552
24318SOL    HW274962   7.411   2.069  10.436
24319SOL     OW74963   6.012   2.306   9.826
24319SOL    HW174964   6.057   2.234   9.778
24319SOL    HW274965   5.977   2.262   9.905
24320SOL     OW74966   7.300   3.357  10.413
24320SOL    HW174967   7.222   3.316  10.370
24320SOL    HW274968   7.316   3.296  10.486
24321SOL     OW74969   5.924   2.416  10.587
24321SOL    HW174970   5.981   2.357  10.642
24321SOL    HW274971   5.933   2.378  10.498
24322SOL     OW74972   6.405   3.462   9.984
24322SOL    HW174973   6.401   3.487   9.891
24322SOL    HW274974   6.325   3.408   9.994
24323SOL     OW74975   7.015   2.099  10.429
24323SOL    HW174976   7.055   2.024  10.473
24323SOL    HW274977   6.959   2.139  10.499
24324SOL     OW74978   6.607   1.867  10.466
24324SOL    HW174979   6.556   1.794  10.429
24324SOL    HW274980   6.697   1.828  10.466
24325SOL     OW74981   6.376   3.206   9.620
24325SOL    HW174982   6.343   3.114   9.625
24325SOL    HW274983   6.450   3.204   9.682
24326SOL     OW74984   6.203   3.417  10.616
24326SOL    HW174985   6.208   3.508  10.654
24326SOL    HW274986   6.277   3.420  10.554
24327SOL     OW74987   6.906   1.890   9.477
24327SOL    HW174988   6.919   1.817   9.415
24327SOL    HW274989   6.818   1.866   9.514
24328SOL     OW74990   6.900   2.331  10.002
24328SOL    HW174991   6.837   2.405   9.991
24328SOL    HW274992   6.879   2.298  10.092
24329SOL     OW74993   7.181   2.068  10.181
24329SOL    HW174994   7.108   2.085  10.242
24329SOL    HW274995   7.183   2.150  10.127
24330SOL     OW74996   5.637   2.941   9.624
24330SOL    HW174997   5.733   2.926   9.614
24330SOL    HW274998   5.606   2.849   9.638
24331SOL     OW74999   6.461   3.512   9.638
24331SOL    HW175000   6.385   3.498   9.578
24331SOL    HW275001   6.439   3.594   9.687
24332SOL     OW75002   5.835   4.371   0.146
24332SOL    HW175003   5.748   4.352   0.181
24332SOL    HW275004   5.823   4.367   0.051
24333SOL     OW75005   5.815   4.003   0.999
24333SOL    HW175006   5.836   3.979   1.091
24333SOL    HW275007   5.729   3.958   0.987
24334SOL     OW75008   5.585   4.122   0.644
24334SOL    HW175009   5.506   4.147   0.695
24334SOL    HW275010   5.550   4.052   0.588
24335SOL     OW75011   6.157   5.022   1.193
24335SOL    HW175012   6.064   5.014   1.168
24335SOL    HW275013   6.161   5.116   1.222
24336SOL     OW75014   7.127   5.253   0.715
24336SOL    HW175015   7.090   5.235   0.803
24336SOL    HW275016   7.049   5.253   0.657
24337SOL     OW75017   6.707   4.420   0.702
24337SOL    HW175018   6.711   4.503   0.750
24337SOL    HW275019   6.648   4.368   0.759
24338SOL     OW75020   7.366   4.330   0.230
24338SOL    HW175021   7.322   4.349   0.146
24338SOL    HW275022   7.311   4.260   0.268
24339SOL     OW75023   6.320   4.878   1.027
24339SOL    HW175024   6.261   4.926   1.089
24339SOL    HW275025   6.360   4.953   0.980
24340SOL     OW75026   6.469   4.460   1.801
24340SOL    HW175027   6.444   4.522   1.871
24340SOL    HW275028   6.499   4.519   1.730
24341SOL     OW75029   6.273   4.737   0.648
24341SOL    HW175030   6.335   4.720   0.720
24341SOL    HW275031   6.201   4.788   0.692
24342SOL     OW75032   6.277   4.881   1.805
24342SOL    HW175033   6.322   4.965   1.828
24342SOL    HW275034   6.189   4.911   1.775
24343SOL     OW75035   5.903   5.154   1.080
24343SOL    HW175036   5.834   5.104   1.034
24343SOL    HW275037   5.954   5.198   1.010
24344SOL     OW75038   7.061   5.226   1.366
24344SOL    HW175039   7.116   5.307   1.378
24344SOL    HW275040   6.994   5.238   1.435
24345SOL     OW75041   6.009   4.118   1.534
24345SOL    HW175042   6.084   4.062   1.513
24345SOL    HW275043   5.933   4.067   1.502
24346SOL     OW75044   7.196   4.175   0.713
24346SOL    HW175045   7.110   4.185   0.667
24346SOL    HW275046   7.186   4.236   0.786
24347SOL     OW75047   5.807   5.446   0.480
24347SOL    HW175048   5.844   5.523   0.528
24347SOL    HW275049   5.868   5.440   0.404
24348SOL     OW75050   6.699   5.069   1.659
24348SOL    HW175051   6.742   5.076   1.745
24348SOL    HW275052   6.656   4.981   1.667
24349SOL     OW75053   5.829   5.153   0.518
24349SOL    HW175054   5.822   5.247   0.538
24349SOL    HW275055   5.765   5.114   0.580
24350SOL     OW75056   5.857   4.812   0.905
24350SOL    HW175057   5.847   4.735   0.964
24350SOL    HW275058   5.803   4.879   0.951
24351SOL     OW75059   6.182   5.515   1.404
24351SOL    HW175060   6.109   5.489   1.464
24351SOL    HW275061   6.206   5.603   1.439
24352SOL     OW75062   6.186   4.707   0.159
24352SOL    HW175063   6.211   4.779   0.101
24352SOL    HW275064   6.218   4.740   0.246
24353SOL     OW75065   7.190   3.829   1.494
24353SOL    HW175066   7.181   3.911   1.443
24353SOL    HW275067   7.193   3.862   1.585
24354SOL     OW75068   5.717   4.377   0.565
24354SOL    HW175069   5.676   4.292   0.585
24354SOL    HW275070   5.704   4.429   0.647
24355SOL     OW75071   7.436   5.457   0.369
24355SOL    HW175072   7.501   5.440   0.439
24355SOL    HW275073   7.455   5.551   0.348
24356SOL     OW75074   5.665   5.334   0.126
24356SOL    HW175075   5.648   5.242   0.154
24356SOL    HW275076   5.629   5.384   0.201
24357SOL     OW75077   7.264   4.625   0.599
24357SOL    HW175078   7.354   4.596   0.578
24357SOL    HW275079   7.255   4.701   0.539
24358SOL     OW75080   7.223   4.853   0.444
24358SOL    HW175081   7.288   4.886   0.379
24358SOL    HW275082   7.235   4.916   0.518
24359SOL     OW75083   5.703   4.464   1.579
24359SOL    HW175084   5.792   4.499   1.594
24359SOL    HW275085   5.649   4.538   1.611
24360SOL     OW75086   6.172   5.124   0.747
24360SOL    HW175087   6.137   5.034   0.756
24360SOL    HW275088   6.162   5.139   0.651
24361SOL     OW75089   6.869   4.955   1.421
24361SOL    HW175090   6.909   4.888   1.364
24361SOL    HW275091   6.924   4.951   1.501
24362SOL     OW75092   6.415   3.732   0.459
24362SOL    HW175093   6.443   3.825   0.471
24362SOL    HW275094   6.321   3.737   0.486
24363SOL     OW75095   5.758   4.710   1.255
24363SOL    HW175096   5.849   4.679   1.246
24363SOL    HW275097   5.707   4.642   1.211
24364SOL     OW75098   7.134   4.704   0.196
24364SOL    HW175099   7.069   4.646   0.236
24364SOL    HW275100   7.169   4.753   0.271
24365SOL     OW75101   6.754   5.533   1.614
24365SOL    HW175102   6.762   5.605   1.549
24365SOL    HW275103   6.785   5.456   1.563
24366SOL     OW75104   5.931   3.960   1.811
24366SOL    HW175105   5.977   4.043   1.798
24366SOL    HW275106   5.846   3.992   1.847
24367SOL     OW75107   7.055   5.154   0.964
24367SOL    HW175108   6.993   5.174   1.037
24367SOL    HW275109   7.029   5.062   0.941
24368SOL     OW75110   7.248   5.471   0.606
24368SOL    HW175111   7.256   5.433   0.517
24368SOL    HW275112   7.210   5.397   0.655
24369SOL     OW75113   6.173   4.436   0.260
24369SOL    HW175114   6.177   4.526   0.223
24369SOL    HW275115   6.108   4.445   0.334
24370SOL     OW75116   6.847   4.093   0.934
24370SOL    HW175117   6.759   4.056   0.954
24370SOL    HW275118   6.905   4.029   0.978
24371SOL     OW75119   7.156   5.373   0.323
24371SOL    HW175120   7.249   5.400   0.316
24371SOL    HW275121   7.134   5.359   0.229
24372SOL     OW75122   6.395   4.345   1.470
24372SOL    HW175123   6.367   4.309   1.557
24372SOL    HW275124   6.345   4.288   1.408
24373SOL     OW75125   6.986   4.201   1.674
24373SOL    HW175126   6.992   4.256   1.754
24373SOL    HW275127   7.039   4.123   1.699
24374SOL     OW75128   6.559   4.604   1.579
24374SOL    HW175129   6.592   4.519   1.541
24374SOL    HW275130   6.513   4.642   1.501
24375SOL     OW75131   6.554   4.131   1.240
24375SOL    HW175132   6.462   4.154   1.259
24375SOL    HW275133   6.547   4.071   1.164
24376SOL     OW75134   6.634   4.406   0.424
24376SOL    HW175135   6.640   4.416   0.521
24376SOL    HW275136   6.547   4.361   0.414
24377SOL     OW75137   5.706   4.537   0.776
24377SOL    HW175138   5.767   4.535   0.851
24377SOL    HW275139   5.646   4.609   0.800
24378SOL     OW75140   5.692   5.570   1.565
24378SOL    HW175141   5.708   5.553   1.660
24378SOL    HW275142   5.596   5.563   1.559
24379SOL     OW75143   6.480   4.097   0.210
24379SOL    HW175144   6.509   4.143   0.130
24379SOL    HW275145   6.482   4.004   0.182
24380SOL     OW75146   7.329   4.326   1.827
24380SOL    HW175147   7.288   4.403   1.784
24380SOL    HW275148   7.314   4.258   1.760
24381SOL     OW75149   6.952   4.868   0.550
24381SOL    HW175150   7.041   4.882   0.516
24381SOL    HW275151   6.902   4.936   0.501
24382SOL     OW75152   6.132   3.906   0.907
24382SOL    HW175153   6.148   3.937   0.998
24382SOL    HW275154   6.114   3.988   0.859
24383SOL     OW75155   6.575   5.150   0.482
24383SOL    HW175156   6.536   5.223   0.429
24383SOL    HW275157   6.572   5.188   0.571
24384SOL     OW75158   5.930   5.528   0.854
24384SOL    HW175159   5.978   5.444   0.867
24384SOL    HW275160   5.998   5.593   0.881
24385SOL     OW75161   7.399   4.760   0.893
24385SOL    HW175162   7.355   4.788   0.812
24385SOL    HW275163   7.331   4.772   0.961
24386SOL     OW75164   6.814   5.288   1.493
24386SOL    HW175165   6.787   5.222   1.558
24386SOL    HW275166   6.758   5.265   1.417
24387SOL     OW75167   5.892   4.691   0.266
24387SOL    HW175168   5.976   4.696   0.220
24387SOL    HW275169   5.856   4.607   0.234
24388SOL     OW75170   7.039   4.502   0.713
24388SOL    HW175171   7.040   4.454   0.796
24388SOL    HW275172   7.127   4.543   0.712
24389SOL     OW75173   6.045   5.002   1.723
24389SOL    HW175174   6.002   5.009   1.635
24389SOL    HW275175   5.965   5.003   1.780
24390SOL     OW75176   6.674   5.476   0.207
24390SOL    HW175177   6.629   5.421   0.274
24390SOL    HW275178   6.703   5.411   0.141
24391SOL     OW75179   5.754   4.017   1.497
24391SOL    HW175180   5.681   4.076   1.520
24391SOL    HW275181   5.733   3.938   1.547
24392SOL     OW75182   7.208   5.065   0.095
24392SOL    HW175183   7.171   5.152   0.076
24392SOL    HW275184   7.152   5.006   0.041
24393SOL     OW75185   6.043   5.468   0.305
24393SOL    HW175186   6.089   5.511   0.378
24393SOL    HW275187   6.114   5.460   0.239
24394SOL     OW75188   6.989   3.842   0.452
24394SOL    HW175189   6.988   3.789   0.370
24394SOL    HW275190   7.085   3.847   0.470
24395SOL     OW75191   5.834   5.521   1.224
24395SOL    HW175192   5.884   5.450   1.267
24395SOL    HW275193   5.815   5.483   1.137
24396SOL     OW75194   6.542   5.423   0.883
24396SOL    HW175195   6.627   5.384   0.903
24396SOL    HW275196   6.503   5.361   0.819
24397SOL     OW75197   5.989   4.404   0.473
24397SOL    HW175198   6.002   4.307   0.479
24397SOL    HW275199   5.898   4.412   0.506
24398SOL     OW75200   7.126   3.971   1.729
24398SOL    HW175201   7.125   3.980   1.828
24398SOL    HW275202   7.069   3.893   1.720
24399SOL     OW75203   6.213   3.843   0.100
24399SOL    HW175204   6.295   3.796   0.126
24399SOL    HW275205   6.170   3.784   0.037
24400SOL     OW75206   6.382   4.007   1.800
24400SOL    HW175207   6.424   3.931   1.757
24400SOL    HW275208   6.304   3.965   1.844
24401SOL     OW75209   6.469   5.266   1.187
24401SOL    HW175210   6.454   5.238   1.095
24401SOL    HW275211   6.520   5.193   1.223
24402SOL     OW75212   6.925   4.315   1.422
24402SOL    HW175213   6.958   4.288   1.510
24402SOL    HW275214   6.970   4.400   1.408
24403SOL     OW75215   6.387   5.130   0.930
24403SOL    HW175216   6.469   5.127   0.879
24403SOL    HW275217   6.319   5.139   0.861
24404SOL     OW75218   6.544   4.253   0.884
24404SOL    HW175219   6.512   4.220   0.796
24404SOL    HW275220   6.546   4.171   0.935
24405SOL     OW75221   6.155   3.771   0.500
24405SOL    HW175222   6.073   3.778   0.553
24405SOL    HW275223   6.144   3.849   0.441
24406SOL     OW75224   7.016   4.887   0.011
24406SOL    HW175225   7.059   4.829   0.077
24406SOL    HW275226   6.943   4.927   0.061
24407SOL     OW75227   5.857   3.790   0.219
24407SOL    HW175228   5.888   3.841   0.143
24407SOL    HW275229   5.926   3.721   0.227
24408SOL     OW75230   6.516   3.981   0.467
24408SOL    HW175231   6.505   4.028   0.382
24408SOL    HW275232   6.612   3.989   0.480
24409SOL     OW75233   6.666   4.390   1.464
24409SOL    HW175234   6.603   4.316   1.463
24409SOL    HW275235   6.753   4.348   1.454
24410SOL     OW75236   6.828   5.291   0.785
24410SOL    HW175237   6.822   5.360   0.716
24410SOL    HW275238   6.892   5.329   0.846
24411SOL     OW75239   6.062   4.871   0.739
24411SOL    HW175240   5.987   4.848   0.798
24411SOL    HW275241   6.022   4.854   0.651
24412SOL     OW75242   6.849   5.535   0.622
24412SOL    HW175243   6.900   5.599   0.569
24412SOL    HW275244   6.816   5.591   0.693
24413SOL     OW75245   6.638   4.297  11.030
24413SOL    HW175246   6.579   4.361  11.075
24413SOL    HW275247   6.714   4.296  11.090
24414SOL     OW75248   5.629   4.289   1.390
24414SOL    HW175249   5.725   4.278   1.378
24414SOL    HW275250   5.627   4.364   1.452
24415SOL     OW75251   6.151   3.961   1.179
24415SOL    HW175252   6.193   3.886   1.223
24415SOL    HW275253   6.057   3.947   1.201
24416SOL     OW75254   6.469   4.173   0.649
24416SOL    HW175255   6.404   4.225   0.599
24416SOL    HW275256   6.476   4.094   0.594
24417SOL     OW75257   6.594   3.800   0.772
24417SOL    HW175258   6.548   3.785   0.689
24417SOL    HW275259   6.568   3.722   0.825
24418SOL     OW75260   7.006   4.902   0.892
24418SOL    HW175261   6.921   4.856   0.896
24418SOL    HW275262   7.020   4.910   0.797
24419SOL     OW75263   7.045   4.293   0.998
24419SOL    HW175264   6.969   4.231   0.991
24419SOL    HW275265   7.103   4.245   1.057
24420SOL     OW75266   7.440   4.551   0.388
24420SOL    HW175267   7.502   4.498   0.440
24420SOL    HW275268   7.417   4.489   0.317
24421SOL     OW75269   6.081   5.177   0.130
24421SOL    HW175270   6.008   5.147   0.188
24421SOL    HW275271   6.086   5.103   0.065
24422SOL     OW75272   7.254   5.013   0.669
24422SOL    HW175273   7.351   5.019   0.673
24422SOL    HW275274   7.224   5.104   0.688
24423SOL     OW75275   6.967   4.325   0.076
24423SOL    HW175276   6.934   4.284   0.159
24423SOL    HW275277   7.030   4.258   0.045
24424SOL     OW75278   6.106   3.956   0.320
24424SOL    HW175279   6.142   3.912   0.241
24424SOL    HW275280   6.075   4.040   0.281
24425SOL     OW75281   7.318   4.952   1.580
24425SOL    HW175282   7.410   4.921   1.576
24425SOL    HW275283   7.333   5.048   1.593
24426SOL     OW75284   6.655   5.080   1.329
24426SOL    HW175285   6.575   5.053   1.378
24426SOL    HW275286   6.725   5.032   1.380
24427SOL     OW75287   7.192   5.313   1.634
24427SOL    HW175288   7.199   5.364   1.551
24427SOL    HW275289   7.280   5.270   1.637
24428SOL     OW75290   6.697   4.946   1.089
24428SOL    HW175291   6.659   4.986   1.168
24428SOL    HW275292   6.663   5.003   1.018
24429SOL     OW75293   7.188   4.810   1.089
24429SOL    HW175294   7.194   4.887   1.150
24429SOL    HW275295   7.127   4.848   1.022
24430SOL     OW75296   6.516   3.826   1.412
24430SOL    HW175297   6.538   3.806   1.319
24430SOL    HW275298   6.599   3.868   1.442
24431SOL     OW75299   6.575   4.833   1.740
24431SOL    HW175300   6.486   4.869   1.756
24431SOL    HW275301   6.561   4.763   1.675
24432SOL     OW75302   6.312   4.798   0.386
24432SOL    HW175303   6.298   4.779   0.481
24432SOL    HW275304   6.392   4.746   0.365
24433SOL     OW75305   6.009   4.534   1.256
24433SOL    HW175306   6.078   4.534   1.327
24433SOL    HW275307   5.964   4.450   1.271
24434SOL     OW75308   6.873   4.109   1.262
24434SOL    HW175309   6.895   4.186   1.319
24434SOL    HW275310   6.785   4.132   1.230
24435SOL     OW75311   5.660   5.295   1.338
24435SOL    HW175312   5.663   5.391   1.324
24435SOL    HW275313   5.755   5.272   1.340
24436SOL     OW75314   5.951   4.823   0.503
24436SOL    HW175315   5.955   4.897   0.441
24436SOL    HW275316   5.924   4.751   0.443
24437SOL     OW75317   6.125   4.265   0.869
24437SOL    HW175318   6.153   4.326   0.797
24437SOL    HW275319   6.191   4.283   0.938
24438SOL     OW75320   6.808   5.053   0.395
24438SOL    HW175321   6.857   5.133   0.421
24438SOL    HW275322   6.717   5.077   0.419
24439SOL     OW75323   6.885   5.189   1.169
24439SOL    HW175324   6.949   5.199   1.242
24439SOL    HW275325   6.814   5.138   1.211
24440SOL     OW75326   7.154   4.336   0.466
24440SOL    HW175327   7.124   4.383   0.546
24440SOL    HW275328   7.199   4.407   0.418
24441SOL     OW75329   5.920   5.243   1.324
24441SOL    HW175330   5.912   5.205   1.233
24441SOL    HW275331   6.014   5.268   1.323
24442SOL     OW75332   6.021   4.452   1.634
24442SOL    HW175333   6.071   4.493   1.562
24442SOL    HW275334   6.053   4.361   1.632
24443SOL     OW75335   7.216   4.501   1.658
24443SOL    HW175336   7.126   4.537   1.657
24443SOL    HW275337   7.253   4.541   1.578
24444SOL     OW75338   6.580   3.833   1.753
24444SOL    HW175339   6.626   3.888   1.688
24444SOL    HW275340   6.619   3.747   1.731
24445SOL     OW75341   6.085   3.741   1.757
24445SOL    HW175342   6.039   3.683   1.693
24445SOL    HW275343   6.020   3.814   1.766
24446SOL     OW75344   6.208   4.610   1.058
24446SOL    HW175345   6.216   4.707   1.052
24446SOL    HW275346   6.136   4.598   1.123
24447SOL     OW75347   6.970   4.556   1.016
24447SOL    HW175348   6.875   4.542   1.004
24447SOL    HW275349   7.002   4.464   1.016
24448SOL     OW75350   6.824   4.227   0.282
24448SOL    HW175351   6.820   4.147   0.338
24448SOL    HW275352   6.758   4.283   0.325
24449SOL     OW75353   5.891   3.924   1.251
24449SOL    HW175354   5.833   3.952   1.325
24449SOL    HW275355   5.868   3.828   1.246
24450SOL     OW75356   5.619   5.025   1.284
24450SOL    HW175357   5.640   4.969   1.361
24450SOL    HW275358   5.624   5.115   1.318
24451SOL     OW75359   6.314   4.371   1.051
24451SOL    HW175360   6.390   4.380   0.991
24451SOL    HW275361   6.275   4.461   1.049
24452SOL     OW75362   7.349   4.673   1.847
24452SOL    HW175363   7.286   4.621   1.796
24452SOL    HW275364   7.295   4.700   1.923
24453SOL     OW75365   5.916   3.799   0.612
24453SOL    HW175366   5.879   3.885   0.640
24453SOL    HW275367   5.905   3.747   0.694
24454SOL     OW75368   7.185   4.094   0.331
24454SOL    HW175369   7.215   4.032   0.399
24454SOL    HW275370   7.166   4.174   0.385
24455SOL     OW75371   6.676   4.471   0.989
24455SOL    HW175372   6.642   4.481   1.080
24455SOL    HW275373   6.634   4.386   0.963
24456SOL     OW75374   6.559   5.292   1.702
24456SOL    HW175375   6.553   5.338   1.616
24456SOL    HW275376   6.586   5.202   1.675
24457SOL     OW75377   7.440   5.212   1.599
24457SOL    HW175378   7.464   5.247   1.512
24457SOL    HW275379   7.520   5.234   1.650
24458SOL     OW75380   5.936   4.625   1.807
24458SOL    HW175381   6.021   4.647   1.847
24458SOL    HW275382   5.960   4.551   1.748
24459SOL     OW75383   7.095   3.988   0.092
24459SOL    HW175384   7.039   3.922   0.134
24459SOL    HW275385   7.143   4.024   0.169
24460SOL     OW75386   6.873   4.574   0.037
24460SOL    HW175387   6.904   4.481   0.043
24460SOL    HW275388   6.914   4.602  11.056
24461SOL     OW75389   6.656   5.079   0.842
24461SOL    HW175390   6.685   5.005   0.786
24461SOL    HW275391   6.722   5.148   0.824
24462SOL     OW75392   5.861   4.541   1.000
24462SOL    HW175393   5.950   4.556   0.966
24462SOL    HW275394   5.865   4.447   1.024
24463SOL     OW75395   5.897   4.260   1.006
24463SOL    HW175396   5.873   4.167   0.993
24463SOL    HW275397   5.972   4.268   0.943
24464SOL     OW75398   6.744   4.090   1.697
24464SOL    HW175399   6.702   4.157   1.753
24464SOL    HW275400   6.835   4.125   1.689
24465SOL     OW75401   6.750   3.929   1.480
24465SOL    HW175402   6.757   3.995   1.551
24465SOL    HW275403   6.795   3.973   1.406
24466SOL     OW75404   5.587   5.079   0.214
24466SOL    HW175405   5.498   5.082   0.174
24466SOL    HW275406   5.598   4.982   0.226
24467SOL     OW75407   5.679   5.500   0.940
24467SOL    HW175408   5.650   5.432   0.876
24467SOL    HW275409   5.773   5.512   0.913
24468SOL     OW75410   6.066   5.297   0.919
24468SOL    HW175411   6.139   5.361   0.929
24468SOL    HW275412   6.104   5.232   0.856
24469SOL     OW75413   6.562   4.487   1.235
24469SOL    HW175414   6.608   4.454   1.315
24469SOL    HW275415   6.470   4.470   1.259
24470SOL     OW75416   5.602   4.245   1.100
24470SOL    HW175417   5.682   4.234   1.048
24470SOL    HW275418   5.637   4.270   1.186
24471SOL     OW75419   5.811   4.238   1.708
24471SOL    HW175420   5.864   4.197   1.639
24471SOL    HW275421   5.765   4.310   1.661
24472SOL     OW75422   6.975   4.646   1.628
24472SOL    HW175423   7.002   4.739   1.644
24472SOL    HW275424   6.883   4.658   1.599
24473SOL     OW75425   6.393   4.301   0.376
24473SOL    HW175426   6.406   4.223   0.319
24473SOL    HW275427   6.314   4.343   0.336
24474SOL     OW75428   7.264   4.385   1.228
24474SOL    HW175429   7.203   4.321   1.268
24474SOL    HW275430   7.321   4.329   1.173
24475SOL     OW75431   5.844   5.265   1.713
24475SOL    HW175432   5.825   5.329   1.784
24475SOL    HW275433   5.851   5.181   1.763
24476SOL     OW75434   6.269   4.208   1.271
24476SOL    HW175435   6.225   4.128   1.239
24476SOL    HW275436   6.269   4.266   1.192
24477SOL     OW75437   6.514   5.410   1.464
24477SOL    HW175438   6.500   5.386   1.371
24477SOL    HW275439   6.510   5.508   1.461
24478SOL     OW75440   6.043   4.190   0.194
24478SOL    HW175441   6.101   4.268   0.207
24478SOL    HW275442   5.956   4.234   0.197
24479SOL     OW75443   5.691   4.855   1.469
24479SOL    HW175444   5.705   4.800   1.550
24479SOL    HW275445   5.711   4.792   1.396
24480SOL     OW75446   6.912   4.759   1.222
24480SOL    HW175447   6.925   4.707   1.141
24480SOL    HW275448   6.843   4.822   1.194
24481SOL     OW75449   6.893   4.584   0.322
24481SOL    HW175450   6.807   4.541   0.332
24481SOL    HW275451   6.898   4.589   0.224
24482SOL     OW75452   7.336   5.472   1.126
24482SOL    HW175453   7.412   5.499   1.071
24482SOL    HW275454   7.332   5.376   1.106
24483SOL     OW75455   6.823   5.443   1.101
24483SOL    HW175456   6.912   5.478   1.087
24483SOL    HW275457   6.841   5.350   1.122
24484SOL     OW75458   5.689   4.985   1.030
24484SOL    HW175459   5.658   4.996   1.123
24484SOL    HW275460   5.619   4.928   0.992
24485SOL     OW75461   6.285   5.361   1.740
24485SOL    HW175462   6.244   5.445   1.714
24485SOL    HW275463   6.377   5.370   1.711
24486SOL     OW75464   6.502   3.838   0.139
24486SOL    HW175465   6.560   3.795   0.076
24486SOL    HW275466   6.526   3.788   0.219
24487SOL     OW75467   7.273   3.847   0.511
24487SOL    HW175468   7.351   3.845   0.453
24487SOL    HW275469   7.280   3.761   0.558
24488SOL     OW75470   6.939   5.287   0.472
24488SOL    HW175471   7.014   5.304   0.411
24488SOL    HW275472   6.910   5.378   0.489
24489SOL     OW75473   5.742   5.521   1.824
24489SOL    HW175474   5.697   5.450   1.874
24489SOL    HW275475   5.785   5.568   1.897
24490SOL     OW75476   6.401   4.987   1.418
24490SOL    HW175477   6.369   5.035   1.498
24490SOL    HW275478   6.328   5.003   1.357
24491SOL     OW75479   6.275   5.351   0.174
24491SOL    HW175480   6.284   5.368   0.079
24491SOL    HW275481   6.207   5.280   0.173
24492SOL     OW75482   7.217   5.442   1.388
24492SOL    HW175483   7.260   5.462   1.303
24492SOL    HW275484   7.201   5.532   1.425
24493SOL     OW75485   7.450   3.908   0.964
24493SOL    HW175486   7.456   3.817   0.930
24493SOL    HW275487   7.361   3.933   0.930
24494SOL     OW75488   5.840   4.043   0.709
24494SOL    HW175489   5.752   4.080   0.689
24494SOL    HW275490   5.843   4.050   0.806
24495SOL     OW75491   6.808   5.312   0.032
24495SOL    HW175492   6.798   5.216   0.038
24495SOL    HW275493   6.745   5.336  11.062
24496SOL     OW75494   6.414   4.721   1.381
24496SOL    HW175495   6.422   4.724   1.285
24496SOL    HW275496   6.410   4.815   1.404
24497SOL     OW75497   6.521   4.660   0.301
24497SOL    HW175498   6.564   4.684   0.217
24497SOL    HW275499   6.538   4.565   0.307
24498SOL     OW75500   7.101   5.318   0.047
24498SOL    HW175501   7.005   5.334   0.043
24498SOL    HW275502   7.130   5.339  11.059
24499SOL     OW75503   5.927   5.002   1.486
24499SOL    HW175504   5.917   5.076   1.424
24499SOL    HW275505   5.846   4.950   1.471
24500SOL     OW75506   7.181   5.017   1.258
24500SOL    HW175507   7.252   5.016   1.323
24500SOL    HW275508   7.123   5.087   1.295
24501SOL     OW75509   6.676   4.785   0.704
24501SOL    HW175510   6.607   4.758   0.768
24501SOL    HW275511   6.624   4.809   0.627
24502SOL     OW75512   6.617   3.959   0.994
24502SOL    HW175513   6.602   3.917   0.907
24502SOL    HW275514   6.619   3.880   1.052
24503SOL     OW75515   6.197   5.213   0.491
24503SOL    HW175516   6.248   5.174   0.417
24503SOL    HW275517   6.118   5.243   0.446
24504SOL     OW75518   7.304   4.089   1.372
24504SOL    HW175519   7.362   4.167   1.367
24504SOL    HW275520   7.347   4.027   1.309
24505SOL     OW75521   5.853   5.089   0.262
24505SOL    HW175522   5.760   5.076   0.235
24505SOL    HW275523   5.843   5.115   0.355
24506SOL     OW75524   5.717   4.733   1.703
24506SOL    HW175525   5.645   4.723   1.769
24506SOL    HW275526   5.796   4.702   1.753
24507SOL     OW75527   6.265   3.911   1.480
24507SOL    HW175528   6.352   3.877   1.452
24507SOL    HW275529   6.288   3.970   1.552
24508SOL     OW75530   5.718   4.092  11.098
24508SOL    HW175531   5.637   4.044  11.072
24508SOL    HW275532   5.688   4.183  11.090
24509SOL     OW75533   7.041   4.571   1.363
24509SOL    HW175534   6.982   4.628   1.309
24509SOL    HW275535   7.043   4.620   1.447
24510SOL     OW75536   5.629   3.881   0.330
24510SOL    HW175537   5.626   3.966   0.283
24510SOL    HW275538   5.720   3.851   0.308
24511SOL     OW75539   6.779   5.039   0.120
24511SOL    HW175540   6.683   5.050   0.108
24511SOL    HW275541   6.788   5.038   0.217
24512SOL     OW75542   6.202   4.531   1.441
24512SOL    HW175543   6.256   4.612   1.442
24512SOL    HW275544   6.273   4.464   1.451
24513SOL     OW75545   7.095   5.494   0.950
24513SOL    HW175546   7.128   5.553   0.881
24513SOL    HW275547   7.167   5.497   1.014
24514SOL     OW75548   6.309   4.255   1.698
24514SOL    HW175549   6.347   4.326   1.752
24514SOL    HW275550   6.320   4.176   1.754
24515SOL     OW75551   7.048   4.911   1.625
24515SOL    HW175552   7.033   4.913   1.722
24515SOL    HW275553   7.142   4.936   1.620
24516SOL     OW75554   5.962   5.457   1.557
24516SOL    HW175555   5.876   5.500   1.544
24516SOL    HW275556   5.934   5.375   1.604
24517SOL     OW75557   6.790   4.042   0.476
24517SOL    HW175558   6.858   3.973   0.461
24517SOL    HW275559   6.829   4.092   0.550
24518SOL     OW75560   6.175   4.465   0.670
24518SOL    HW175561   6.202   4.556   0.651
24518SOL    HW275562   6.110   4.447   0.600
24519SOL     OW75563   7.346   4.109   1.633
24519SOL    HW175564   7.313   4.104   1.541
24519SOL    HW275565   7.280   4.053   1.679
24520SOL     OW75566   7.308   4.677   1.460
24520SOL    HW175567   7.281   4.756   1.510
24520SOL    HW275568   7.404   4.689   1.456
24521SOL     OW75569   6.498   5.084   0.057
24521SOL    HW175570   6.410   5.088   0.097
24521SOL    HW275571   6.499   5.162   0.000
24522SOL     OW75572   6.224   5.525   0.909
24522SOL    HW175573   6.213   5.621   0.899
24522SOL    HW275574   6.319   5.514   0.919
24523SOL     OW75575   6.473   4.677   0.852
24523SOL    HW175576   6.507   4.603   0.903
24523SOL    HW275577   6.432   4.732   0.921
24524SOL     OW75578   6.634   4.709   0.057
24524SOL    HW175579   6.652   4.792   0.012
24524SOL    HW275580   6.721   4.665   0.055
24525SOL     OW75581   7.437   5.261   0.817
24525SOL    HW175582   7.345   5.282   0.798
24525SOL    HW275583   7.433   5.230   0.909
24526SOL     OW75584   5.826   5.036   1.868
24526SOL    HW175585   5.746   4.986   1.849
24526SOL    HW275586   5.820   5.046   1.965
24527SOL     OW75587   5.678   4.974   0.653
24527SOL    HW175588   5.670   4.915   0.729
24527SOL    HW275589   5.742   4.926   0.598
24528SOL     OW75590   6.266   5.119   1.612
24528SOL    HW175591   6.187   5.072   1.645
24528SOL    HW275592   6.257   5.206   1.654
24529SOL     OW75593   7.412   3.893   1.223
24529SOL    HW175594   7.396   3.797   1.224
24529SOL    HW275595   7.416   3.908   1.126
24530SOL     OW75596   6.030   4.138   0.527
24530SOL    HW175597   6.055   4.059   0.477
24530SOL    HW275598   5.970   4.103   0.595
24531SOL     OW75599   7.315   5.206   1.074
24531SOL    HW175600   7.227   5.182   1.040
24531SOL    HW275601   7.317   5.155   1.156
24532SOL     OW75602   5.905   4.262   1.286
24532SOL    HW175603   5.984   4.226   1.328
24532SOL    HW275604   5.916   4.237   1.193
24533SOL     OW75605   6.414   5.294   0.680
24533SOL    HW175606   6.415   5.341   0.595
24533SOL    HW275607   6.321   5.268   0.687
24534SOL     OW75608   7.019   3.962   1.089
24534SOL    HW175609   7.048   3.881   1.134
24534SOL    HW275610   6.968   4.008   1.159
24535SOL     OW75611   6.600   3.729   1.160
24535SOL    HW175612   6.545   3.654   1.131
24535SOL    HW275613   6.690   3.690   1.153
24536SOL     OW75614   6.341   5.066   0.310
24536SOL    HW175615   6.319   4.974   0.332
24536SOL    HW275616   6.433   5.072   0.338
24537SOL     OW75617   6.184   5.284   1.264
24537SOL    HW175618   6.186   5.368   1.315
24537SOL    HW275619   6.277   5.280   1.235
24538SOL     OW75620   6.900   3.751   0.171
24538SOL    HW175621   6.904   3.725   0.078
24538SOL    HW275622   6.812   3.716   0.198
24539SOL     OW75623   6.900   4.202   0.697
24539SOL    HW175624   6.837   4.276   0.694
24539SOL    HW275625   6.878   4.161   0.783
24540SOL     OW75626   7.198   3.940   0.871
24540SOL    HW175627   7.118   3.937   0.926
24540SOL    HW275628   7.176   4.004   0.802
24541SOL     OW75629   5.641   4.822   0.261
24541SOL    HW175630   5.731   4.793   0.279
24541SOL    HW275631   5.591   4.742   0.285
24542SOL     OW75632   6.478   5.363   0.357
24542SOL    HW175633   6.400   5.352   0.300
24542SOL    HW275634   6.458   5.447   0.404
24543SOL     OW75635   5.819   4.349   1.995
24543SOL    HW175636   5.726   4.347   2.021
24543SOL    HW275637   5.817   4.341   1.898
24544SOL     OW75638   5.810   4.013   2.864
24544SOL    HW175639   5.835   3.984   2.954
24544SOL    HW275640   5.725   3.966   2.852
24545SOL     OW75641   5.592   4.125   2.477
24545SOL    HW175642   5.514   4.154   2.529
24545SOL    HW275643   5.560   4.042   2.441
24546SOL     OW75644   6.147   5.013   3.062
24546SOL    HW175645   6.060   5.009   3.020
24546SOL    HW275646   6.153   5.106   3.090
24547SOL     OW75647   7.129   5.252   2.579
24547SOL    HW175648   7.098   5.224   2.668
24547SOL    HW275649   7.049   5.249   2.524
24548SOL     OW75650   6.700   4.417   2.563
24548SOL    HW175651   6.742   4.503   2.542
24548SOL    HW275652   6.670   4.432   2.654
24549SOL     OW75653   7.371   4.328   2.097
24549SOL    HW175654   7.335   4.330   2.007
24549SOL    HW275655   7.308   4.272   2.145
24550SOL     OW75656   6.310   4.884   2.887
24550SOL    HW175657   6.254   4.931   2.953
24550SOL    HW275658   6.345   4.959   2.836
24551SOL     OW75659   6.448   4.485   3.673
24551SOL    HW175660   6.445   4.547   3.747
24551SOL    HW275661   6.481   4.542   3.602
24552SOL     OW75662   6.272   4.741   2.518
24552SOL    HW175663   6.335   4.723   2.589
24552SOL    HW275664   6.204   4.796   2.562
24553SOL     OW75665   6.295   4.884   3.670
24553SOL    HW175666   6.337   4.967   3.702
24553SOL    HW275667   6.209   4.918   3.640
24554SOL     OW75668   5.901   5.154   2.928
24554SOL    HW175669   5.833   5.106   2.877
24554SOL    HW275670   5.949   5.206   2.861
24555SOL     OW75671   7.062   5.210   3.235
24555SOL    HW175672   7.122   5.287   3.245
24555SOL    HW275673   6.993   5.229   3.301
24556SOL     OW75674   6.011   4.125   3.376
24556SOL    HW175675   6.091   4.069   3.378
24556SOL    HW275676   5.940   4.060   3.366
24557SOL     OW75677   7.190   4.170   2.602
24557SOL    HW175678   7.127   4.216   2.545
24557SOL    HW275679   7.178   4.219   2.684
24558SOL     OW75680   5.803   5.437   2.334
24558SOL    HW175681   5.826   5.515   2.388
24558SOL    HW275682   5.868   5.444   2.262
24559SOL     OW75683   6.731   5.078   3.539
24559SOL    HW175684   6.797   5.065   3.609
24559SOL    HW275685   6.674   4.999   3.553
24560SOL     OW75686   5.836   5.156   2.392
24560SOL    HW175687   5.831   5.253   2.398
24560SOL    HW275688   5.766   5.129   2.453
24561SOL     OW75689   5.865   4.816   2.770
24561SOL    HW175690   5.862   4.738   2.827
24561SOL    HW275691   5.802   4.876   2.814
24562SOL     OW75692   6.178   5.528   3.255
24562SOL    HW175693   6.120   5.495   3.325
24562SOL    HW275694   6.206   5.614   3.292
24563SOL     OW75695   6.167   4.713   1.983
24563SOL    HW175696   6.212   4.766   1.914
24563SOL    HW275697   6.208   4.749   2.064
24564SOL     OW75698   7.193   3.828   3.355
24564SOL    HW175699   7.190   3.911   3.306
24564SOL    HW275700   7.187   3.859   3.447
24565SOL     OW75701   5.703   4.380   2.428
24565SOL    HW175702   5.676   4.286   2.434
24565SOL    HW275703   5.686   4.413   2.517
24566SOL     OW75704   7.428   5.475   2.195
24566SOL    HW175705   7.499   5.454   2.259
24566SOL    HW275706   7.449   5.567   2.175
24567SOL     OW75707   5.650   5.319   1.974
24567SOL    HW175708   5.633   5.225   1.994
24567SOL    HW275709   5.616   5.363   2.055
24568SOL     OW75710   7.264   4.620   2.489
24568SOL    HW175711   7.359   4.623   2.504
24568SOL    HW275712   7.249   4.690   2.423
24569SOL     OW75713   7.231   4.837   2.308
24569SOL    HW175714   7.321   4.841   2.271
24569SOL    HW275715   7.234   4.907   2.376
24570SOL     OW75716   5.707   4.469   3.445
24570SOL    HW175717   5.801   4.491   3.437
24570SOL    HW275718   5.675   4.548   3.493
24571SOL     OW75719   6.168   5.139   2.615
24571SOL    HW175720   6.134   5.047   2.623
24571SOL    HW275721   6.161   5.154   2.519
24572SOL     OW75722   6.870   4.944   3.284
24572SOL    HW175723   6.903   4.871   3.230
24572SOL    HW275724   6.923   4.938   3.365
24573SOL     OW75725   6.421   3.721   2.353
24573SOL    HW175726   6.452   3.814   2.351
24573SOL    HW275727   6.327   3.733   2.374
24574SOL     OW75728   5.756   4.693   3.121
24574SOL    HW175729   5.846   4.667   3.094
24574SOL    HW275730   5.700   4.624   3.082
24575SOL     OW75731   7.134   4.693   2.046
24575SOL    HW175732   7.058   4.642   2.079
24575SOL    HW275733   7.170   4.729   2.130
24576SOL     OW75734   6.751   5.536   3.476
24576SOL    HW175735   6.774   5.581   3.395
24576SOL    HW275736   6.786   5.447   3.462
24577SOL     OW75737   5.910   3.955   3.623
24577SOL    HW175738   5.958   4.026   3.669
24577SOL    HW275739   5.821   3.966   3.662
24578SOL     OW75740   7.059   5.156   2.824
24578SOL    HW175741   6.994   5.177   2.894
24578SOL    HW275742   7.032   5.065   2.800
24579SOL     OW75743   7.256   5.452   2.461
24579SOL    HW175744   7.232   5.417   2.374
24579SOL    HW275745   7.218   5.383   2.520
24580SOL     OW75746   6.169   4.441   2.120
24580SOL    HW175747   6.173   4.532   2.085
24580SOL    HW275748   6.100   4.447   2.188
24581SOL     OW75749   6.857   4.058   2.780
24581SOL    HW175750   6.770   4.024   2.808
24581SOL    HW275751   6.914   4.034   2.856
24582SOL     OW75752   7.162   5.363   2.174
24582SOL    HW175753   7.251   5.401   2.177
24582SOL    HW275754   7.152   5.350   2.078
24583SOL     OW75755   6.398   4.340   3.309
24583SOL    HW175756   6.377   4.312   3.402
24583SOL    HW275757   6.343   4.277   3.258
24584SOL     OW75758   6.992   4.207   3.543
24584SOL    HW175759   6.994   4.256   3.628
24584SOL    HW275760   7.049   4.130   3.563
24585SOL     OW75761   6.555   4.610   3.448
24585SOL    HW175762   6.592   4.529   3.410
24585SOL    HW275763   6.508   4.648   3.372
24586SOL     OW75764   6.569   4.138   3.087
24586SOL    HW175765   6.488   4.153   3.136
24586SOL    HW275766   6.540   4.085   3.012
24587SOL     OW75767   6.627   4.411   2.265
24587SOL    HW175768   6.640   4.431   2.359
24587SOL    HW275769   6.544   4.359   2.266
24588SOL     OW75770   5.684   4.531   2.665
24588SOL    HW175771   5.759   4.533   2.726
24588SOL    HW275772   5.638   4.614   2.686
24589SOL     OW75773   5.680   5.566   3.415
24589SOL    HW175774   5.699   5.547   3.509
24589SOL    HW275775   5.583   5.564   3.413
24590SOL     OW75776   7.294   4.315   3.725
24590SOL    HW175777   7.258   4.384   3.667
24590SOL    HW275778   7.326   4.250   3.662
24591SOL     OW75779   6.939   4.878   2.418
24591SOL    HW175780   7.021   4.869   2.367
24591SOL    HW275781   6.890   4.943   2.366
24592SOL     OW75782   6.138   3.923   2.761
24592SOL    HW175783   6.148   3.938   2.857
24592SOL    HW275784   6.125   4.013   2.727
24593SOL     OW75785   6.570   5.167   2.349
24593SOL    HW175786   6.527   5.229   2.288
24593SOL    HW275787   6.577   5.217   2.430
24594SOL     OW75788   5.928   5.535   2.717
24594SOL    HW175789   5.974   5.450   2.733
24594SOL    HW275790   5.998   5.599   2.736
24595SOL     OW75791   7.404   4.763   2.727
24595SOL    HW175792   7.337   4.781   2.660
24595SOL    HW275793   7.351   4.746   2.806
24596SOL     OW75794   6.821   5.279   3.368
24596SOL    HW175795   6.802   5.218   3.442
24596SOL    HW275796   6.763   5.244   3.299
24597SOL     OW75797   5.895   4.676   2.126
24597SOL    HW175798   5.965   4.704   2.065
24597SOL    HW275799   5.865   4.593   2.085
24598SOL     OW75800   7.064   4.466   2.572
24598SOL    HW175801   7.060   4.462   2.669
24598SOL    HW275802   7.143   4.522   2.558
24599SOL     OW75803   6.056   4.984   3.579
24599SOL    HW175804   6.010   4.989   3.493
24599SOL    HW275805   5.982   5.000   3.641
24600SOL     OW75806   6.676   5.501   2.107
24600SOL    HW175807   6.608   5.446   2.150
24600SOL    HW275808   6.691   5.454   2.023
24601SOL     OW75809   5.761   4.007   3.344
24601SOL    HW175810   5.691   4.070   3.364
24601SOL    HW275811   5.754   3.943   3.416
24602SOL     OW75812   7.218   5.065   1.946
24602SOL    HW175813   7.180   5.154   1.931
24602SOL    HW275814   7.147   5.006   1.916
24603SOL     OW75815   6.037   5.465   2.181
24603SOL    HW175816   6.086   5.514   2.250
24603SOL    HW275817   6.107   5.430   2.125
24604SOL     OW75818   6.990   3.852   2.291
24604SOL    HW175819   6.997   3.790   2.217
24604SOL    HW275820   7.083   3.862   2.318
24605SOL     OW75821   5.830   5.516   3.088
24605SOL    HW175822   5.890   5.455   3.132
24605SOL    HW275823   5.816   5.475   3.002
24606SOL     OW75824   6.547   5.418   2.748
24606SOL    HW175825   6.632   5.371   2.755
24606SOL    HW275826   6.502   5.369   2.677
24607SOL     OW75827   5.978   4.402   2.325
24607SOL    HW175828   5.997   4.308   2.346
24607SOL    HW275829   5.886   4.410   2.356
24608SOL     OW75830   7.117   3.968   3.594
24608SOL    HW175831   7.121   3.984   3.692
24608SOL    HW275832   7.053   3.896   3.592
24609SOL     OW75833   6.222   3.850   1.953
24609SOL    HW175834   6.271   3.777   1.992
24609SOL    HW275835   6.167   3.804   1.887
24610SOL     OW75836   6.347   3.995   3.580
24610SOL    HW175837   6.431   3.945   3.585
24610SOL    HW275838   6.313   3.983   3.670
24611SOL     OW75839   6.481   5.272   3.057
24611SOL    HW175840   6.478   5.242   2.965
24611SOL    HW275841   6.532   5.203   3.102
24612SOL     OW75842   6.933   4.299   3.296
24612SOL    HW175843   6.969   4.272   3.383
24612SOL    HW275844   6.973   4.386   3.283
24613SOL     OW75845   6.384   5.129   2.777
24613SOL    HW175846   6.469   5.117   2.732
24613SOL    HW275847   6.318   5.132   2.705
24614SOL     OW75848   6.537   4.240   2.782
24614SOL    HW175849   6.509   4.226   2.689
24614SOL    HW275850   6.566   4.151   2.807
24615SOL     OW75851   6.146   3.775   2.367
24615SOL    HW175852   6.071   3.784   2.429
24615SOL    HW275853   6.130   3.850   2.306
24616SOL     OW75854   7.025   4.888   1.883
24616SOL    HW175855   7.056   4.822   1.948
24616SOL    HW275856   6.947   4.927   1.924
24617SOL     OW75857   5.865   3.766   2.047
24617SOL    HW175858   5.922   3.840   2.023
24617SOL    HW275859   5.928   3.707   2.093
24618SOL     OW75860   6.512   3.976   2.361
24618SOL    HW175861   6.492   4.055   2.310
24618SOL    HW275862   6.608   3.985   2.374
24619SOL     OW75863   6.680   4.399   3.319
24619SOL    HW175864   6.619   4.326   3.340
24619SOL    HW275865   6.768   4.358   3.329
24620SOL     OW75866   6.811   5.313   2.655
24620SOL    HW175867   6.810   5.365   2.572
24620SOL    HW275868   6.891   5.345   2.697
24621SOL     OW75869   6.058   4.887   2.595
24621SOL    HW175870   5.987   4.855   2.654
24621SOL    HW275871   6.022   4.862   2.507
24622SOL     OW75872   6.850   5.533   2.456
24622SOL    HW175873   6.902   5.596   2.401
24622SOL    HW275874   6.809   5.594   2.520
24623SOL     OW75875   6.648   4.242   1.892
24623SOL    HW175876   6.594   4.322   1.878
24623SOL    HW275877   6.712   4.271   1.959
24624SOL     OW75878   5.646   4.281   3.260
24624SOL    HW175879   5.742   4.269   3.243
24624SOL    HW275880   5.646   4.359   3.319
24625SOL     OW75881   6.162   3.942   3.028
24625SOL    HW175882   6.204   3.873   3.080
24625SOL    HW275883   6.070   3.939   3.061
24626SOL     OW75884   6.463   4.188   2.536
24626SOL    HW175885   6.402   4.232   2.475
24626SOL    HW275886   6.458   4.095   2.510
24627SOL     OW75887   6.589   3.793   2.630
24627SOL    HW175888   6.558   3.770   2.543
24627SOL    HW275889   6.577   3.710   2.681
24628SOL     OW75890   7.007   4.905   2.748
24628SOL    HW175891   6.960   4.824   2.773
24628SOL    HW275892   7.003   4.900   2.651
24629SOL     OW75893   7.085   4.288   2.839
24629SOL    HW175894   7.020   4.219   2.856
24629SOL    HW275895   7.135   4.294   2.922
24630SOL     OW75896   7.442   4.550   2.245
24630SOL    HW175897   7.481   4.499   2.320
24630SOL    HW275898   7.427   4.478   2.181
24631SOL     OW75899   6.078   5.156   1.987
24631SOL    HW175900   5.996   5.138   2.036
24631SOL    HW275901   6.068   5.102   1.908
24632SOL     OW75902   7.246   5.008   2.519
24632SOL    HW175903   7.344   5.013   2.519
24632SOL    HW275904   7.220   5.099   2.543
24633SOL     OW75905   6.987   4.311   1.939
24633SOL    HW175906   6.935   4.291   2.019
24633SOL    HW275907   7.073   4.276   1.964
24634SOL     OW75908   6.110   3.959   2.177
24634SOL    HW175909   6.149   3.924   2.095
24634SOL    HW275910   6.075   4.045   2.145
24635SOL     OW75911   6.654   5.082   3.198
24635SOL    HW175912   6.574   5.047   3.242
24635SOL    HW275913   6.724   5.035   3.248
24636SOL     OW75914   6.699   4.946   2.956
24636SOL    HW175915   6.650   4.977   3.033
24636SOL    HW275916   6.668   5.005   2.886
24637SOL     OW75917   7.187   4.819   2.944
24637SOL    HW175918   7.194   4.884   3.017
24637SOL    HW275919   7.136   4.870   2.879
24638SOL     OW75920   6.497   3.830   3.256
24638SOL    HW175921   6.533   3.803   3.170
24638SOL    HW275922   6.574   3.873   3.298
24639SOL     OW75923   6.573   4.860   3.581
24639SOL    HW175924   6.483   4.870   3.616
24639SOL    HW275925   6.570   4.772   3.539
24640SOL     OW75926   6.305   4.792   2.221
24640SOL    HW175927   6.285   4.770   2.314
24640SOL    HW275928   6.372   4.725   2.196
24641SOL     OW75929   6.011   4.527   3.124
24641SOL    HW175930   6.085   4.525   3.189
24641SOL    HW275931   5.966   4.443   3.142
24642SOL     OW75932   6.850   4.104   3.125
24642SOL    HW175933   6.872   4.179   3.184
24642SOL    HW275934   6.756   4.121   3.104
24643SOL     OW75935   5.659   5.286   3.193
24643SOL    HW175936   5.659   5.379   3.165
24643SOL    HW275937   5.755   5.267   3.198
24644SOL     OW75938   5.962   4.811   2.358
24644SOL    HW175939   5.970   4.887   2.299
24644SOL    HW275940   5.940   4.740   2.296
24645SOL     OW75941   6.127   4.257   2.717
24645SOL    HW175942   6.159   4.322   2.652
24645SOL    HW275943   6.179   4.280   2.795
24646SOL     OW75944   6.815   5.076   2.242
24646SOL    HW175945   6.859   5.150   2.289
24646SOL    HW275946   6.723   5.088   2.271
24647SOL     OW75947   6.884   5.195   3.033
24647SOL    HW175948   6.951   5.193   3.104
24647SOL    HW275949   6.818   5.133   3.067
24648SOL     OW75950   7.168   4.341   2.327
24648SOL    HW175951   7.117   4.380   2.401
24648SOL    HW275952   7.205   4.420   2.287
24649SOL     OW75953   5.924   5.231   3.175
24649SOL    HW175954   5.916   5.201   3.081
24649SOL    HW275955   6.019   5.255   3.177
24650SOL     OW75956   6.030   4.450   3.488
24650SOL    HW175957   6.084   4.488   3.416
24650SOL    HW275958   6.077   4.368   3.507
24651SOL     OW75959   7.208   4.503   3.548
24651SOL    HW175960   7.120   4.544   3.540
24651SOL    HW275961   7.258   4.556   3.483
24652SOL     OW75962   6.570   3.844   3.589
24652SOL    HW175963   6.642   3.907   3.605
24652SOL    HW275964   6.620   3.767   3.558
24653SOL     OW75965   6.096   3.737   3.593
24653SOL    HW175966   6.046   3.681   3.531
24653SOL    HW275967   6.031   3.806   3.614
24654SOL     OW75968   6.159   4.624   2.912
24654SOL    HW175969   6.201   4.711   2.917
24654SOL    HW275970   6.115   4.615   2.998
24655SOL     OW75971   6.960   4.569   2.828
24655SOL    HW175972   6.866   4.549   2.831
24655SOL    HW275973   6.998   4.491   2.871
24656SOL     OW75974   6.799   4.233   2.135
24656SOL    HW175975   6.810   4.167   2.206
24656SOL    HW275976   6.744   4.299   2.181
24657SOL     OW75977   5.894   3.914   3.109
24657SOL    HW175978   5.844   3.943   3.188
24657SOL    HW275979   5.864   3.822   3.100
24658SOL     OW75980   5.617   5.012   3.145
24658SOL    HW175981   5.650   4.961   3.222
24658SOL    HW275982   5.628   5.105   3.173
24659SOL     OW75983   6.295   4.363   2.911
24659SOL    HW175984   6.379   4.343   2.869
24659SOL    HW275985   6.282   4.459   2.896
24660SOL     OW75986   7.344   4.681   3.723
24660SOL    HW175987   7.280   4.632   3.669
24660SOL    HW275988   7.331   4.644   3.811
24661SOL     OW75989   5.882   3.782   2.469
24661SOL    HW175990   5.858   3.872   2.495
24661SOL    HW275991   5.886   3.736   2.555
24662SOL     OW75992   7.183   4.102   2.209
24662SOL    HW175993   7.209   4.031   2.269
24662SOL    HW275994   7.177   4.180   2.269
24663SOL     OW75995   6.647   4.478   2.826
24663SOL    HW175996   6.633   4.490   2.922
24663SOL    HW275997   6.615   4.385   2.816
24664SOL     OW75998   6.566   5.290   3.562
24664SOL    HW175999   6.548   5.332   3.476
24664SOL    HW276000   6.607   5.205   3.539
24665SOL     OW76001   5.928   4.628   3.659
24665SOL    HW176002   6.008   4.668   3.696
24665SOL    HW276003   5.965   4.554   3.606
24666SOL     OW76004   7.091   3.990   1.985
24666SOL    HW176005   7.025   3.926   2.019
24666SOL    HW276006   7.129   4.027   2.067
24667SOL     OW76007   6.861   4.549   1.879
24667SOL    HW176008   6.909   4.470   1.909
24667SOL    HW276009   6.904   4.570   1.795
24668SOL     OW76010   6.651   5.089   2.708
24668SOL    HW176011   6.668   5.010   2.653
24668SOL    HW276012   6.724   5.150   2.686
24669SOL     OW76013   5.874   4.547   2.872
24669SOL    HW176014   5.970   4.563   2.864
24669SOL    HW276015   5.873   4.451   2.890
24670SOL     OW76016   5.900   4.269   2.858
24670SOL    HW176017   5.872   4.176   2.851
24670SOL    HW276018   5.974   4.272   2.793
24671SOL     OW76019   6.740   4.128   3.547
24671SOL    HW176020   6.697   4.181   3.618
24671SOL    HW276021   6.832   4.159   3.552
24672SOL     OW76022   6.742   3.937   3.337
24672SOL    HW176023   6.745   4.001   3.411
24672SOL    HW276024   6.798   3.981   3.271
24673SOL     OW76025   5.588   5.050   2.060
24673SOL    HW176026   5.495   5.062   2.028
24673SOL    HW276027   5.586   4.957   2.090
24674SOL     OW76028   5.683   5.503   2.809
24674SOL    HW176029   5.654   5.430   2.750
24674SOL    HW276030   5.773   5.521   2.776
24675SOL     OW76031   6.072   5.317   2.793
24675SOL    HW176032   6.142   5.383   2.811
24675SOL    HW276033   6.120   5.253   2.736
24676SOL     OW76034   6.570   4.498   3.089
24676SOL    HW176035   6.620   4.468   3.168
24676SOL    HW276036   6.482   4.469   3.112
24677SOL     OW76037   5.609   4.247   2.972
24677SOL    HW176038   5.688   4.238   2.917
24677SOL    HW276039   5.647   4.268   3.058
24678SOL     OW76040   5.795   4.234   3.564
24678SOL    HW176041   5.864   4.202   3.503
24678SOL    HW276042   5.760   4.313   3.520
24679SOL     OW76043   6.980   4.668   3.510
24679SOL    HW176044   7.000   4.764   3.514
24679SOL    HW276045   6.979   4.650   3.415
24680SOL     OW76046   6.379   4.280   2.221
24680SOL    HW176047   6.329   4.237   2.151
24680SOL    HW276048   6.325   4.360   2.231
24681SOL     OW76049   7.235   4.354   3.069
24681SOL    HW176050   7.202   4.287   3.130
24681SOL    HW276051   7.310   4.308   3.026
24682SOL     OW76052   5.832   5.267   3.577
24682SOL    HW176053   5.830   5.340   3.641
24682SOL    HW276054   5.843   5.188   3.635
24683SOL     OW76055   6.262   4.202   3.130
24683SOL    HW176056   6.227   4.119   3.094
24683SOL    HW276057   6.261   4.263   3.054
24684SOL     OW76058   6.503   5.421   3.333
24684SOL    HW176059   6.492   5.406   3.239
24684SOL    HW276060   6.508   5.517   3.339
24685SOL     OW76061   6.035   4.196   2.068
24685SOL    HW176062   6.090   4.276   2.074
24685SOL    HW276063   5.946   4.235   2.060
24686SOL     OW76064   5.697   4.848   3.333
24686SOL    HW176065   5.704   4.793   3.414
24686SOL    HW276066   5.718   4.784   3.262
24687SOL     OW76067   6.906   4.759   3.086
24687SOL    HW176068   6.935   4.716   3.005
24687SOL    HW276069   6.841   4.823   3.054
24688SOL     OW76070   6.908   4.568   2.150
24688SOL    HW176071   6.831   4.553   2.205
24688SOL    HW276072   6.870   4.584   2.062
24689SOL     OW76073   7.333   5.471   2.982
24689SOL    HW176074   7.407   5.500   2.925
24689SOL    HW276075   7.338   5.374   2.971
24690SOL     OW76076   6.821   5.459   2.972
24690SOL    HW176077   6.907   5.480   2.931
24690SOL    HW276078   6.831   5.365   2.994
24691SOL     OW76079   5.681   4.979   2.888
24691SOL    HW176080   5.654   4.991   2.982
24691SOL    HW276081   5.607   4.928   2.852
24692SOL     OW76082   6.270   5.379   3.559
24692SOL    HW176083   6.234   5.458   3.603
24692SOL    HW276084   6.362   5.404   3.543
24693SOL     OW76085   7.263   3.864   2.352
24693SOL    HW176086   7.342   3.852   2.298
24693SOL    HW276087   7.265   3.785   2.410
24694SOL     OW76088   6.948   5.298   2.353
24694SOL    HW176089   7.012   5.313   2.281
24694SOL    HW276090   6.910   5.387   2.366
24695SOL     OW76091   5.743   5.523   3.678
24695SOL    HW176092   5.690   5.464   3.735
24695SOL    HW276093   5.806   5.557   3.744
24696SOL     OW76094   6.836   4.647   2.521
24696SOL    HW176095   6.917   4.600   2.544
24696SOL    HW276096   6.871   4.727   2.478
24697SOL     OW76097   6.396   4.987   3.274
24697SOL    HW176098   6.379   5.030   3.360
24697SOL    HW276099   6.311   5.003   3.230
24698SOL     OW76100   6.256   5.346   2.017
24698SOL    HW176101   6.270   5.356   1.921
24698SOL    HW276102   6.194   5.270   2.016
24699SOL     OW76103   7.205   5.434   3.230
24699SOL    HW176104   7.260   5.456   3.153
24699SOL    HW276105   7.194   5.520   3.273
24700SOL     OW76106   7.427   3.898   2.837
24700SOL    HW176107   7.442   3.805   2.810
24700SOL    HW276108   7.340   3.919   2.798
24701SOL     OW76109   5.841   4.040   2.566
24701SOL    HW176110   5.756   4.082   2.543
24701SOL    HW276111   5.844   4.049   2.662
24702SOL     OW76112   6.772   5.355   1.886
24702SOL    HW176113   6.786   5.259   1.896
24702SOL    HW276114   6.714   5.361   1.808
24703SOL     OW76115   6.413   4.724   3.253
24703SOL    HW176116   6.441   4.731   3.162
24703SOL    HW276117   6.408   4.818   3.281
24704SOL     OW76118   6.492   4.628   2.127
24704SOL    HW176119   6.564   4.677   2.082
24704SOL    HW276120   6.539   4.558   2.175
24705SOL     OW76121   7.133   5.317   1.897
24705SOL    HW176122   7.043   5.352   1.896
24705SOL    HW276123   7.157   5.325   1.802
24706SOL     OW76124   5.932   4.993   3.340
24706SOL    HW176125   5.923   5.068   3.281
24706SOL    HW276126   5.847   4.946   3.334
24707SOL     OW76127   7.206   5.023   3.124
24707SOL    HW176128   7.276   5.034   3.192
24707SOL    HW276129   7.137   5.082   3.160
24708SOL     OW76130   6.638   4.830   2.586
24708SOL    HW176131   6.563   4.781   2.624
24708SOL    HW276132   6.702   4.760   2.567
24709SOL     OW76133   6.612   3.953   2.849
24709SOL    HW176134   6.599   3.906   2.763
24709SOL    HW276135   6.616   3.879   2.912
24710SOL     OW76136   6.198   5.203   2.354
24710SOL    HW176137   6.246   5.161   2.280
24710SOL    HW276138   6.130   5.254   2.309
24711SOL     OW76139   7.285   4.102   3.241
24711SOL    HW176140   7.350   4.173   3.249
24711SOL    HW276141   7.335   4.035   3.189
24712SOL     OW76142   5.835   5.105   2.131
24712SOL    HW176143   5.738   5.089   2.122
24712SOL    HW276144   5.841   5.128   2.227
24713SOL     OW76145   5.692   4.711   3.565
24713SOL    HW176146   5.625   4.705   3.636
24713SOL    HW276147   5.776   4.693   3.614
24714SOL     OW76148   6.253   3.902   3.347
24714SOL    HW176149   6.342   3.875   3.316
24714SOL    HW276150   6.274   3.942   3.434
24715SOL     OW76151   5.688   4.078   1.890
24715SOL    HW176152   5.595   4.074   1.865
24715SOL    HW276153   5.720   4.149   1.832
24716SOL     OW76154   7.028   4.573   3.246
24716SOL    HW176155   6.979   4.636   3.190
24716SOL    HW276156   7.120   4.602   3.234
24717SOL     OW76157   5.630   3.888   2.159
24717SOL    HW176158   5.622   3.977   2.121
24717SOL    HW276159   5.712   3.856   2.118
24718SOL     OW76160   6.801   5.070   1.970
24718SOL    HW176161   6.715   5.026   1.978
24718SOL    HW276162   6.825   5.081   2.064
24719SOL     OW76163   6.213   4.530   3.290
24719SOL    HW176164   6.266   4.611   3.301
24719SOL    HW276165   6.284   4.463   3.294
24720SOL     OW76166   7.081   5.496   2.827
24720SOL    HW176167   7.127   5.545   2.758
24720SOL    HW276168   7.152   5.479   2.891
24721SOL     OW76169   6.312   4.273   3.543
24721SOL    HW176170   6.346   4.332   3.612
24721SOL    HW276171   6.319   4.185   3.582
24722SOL     OW76172   7.041   4.928   3.496
24722SOL    HW176173   7.003   4.966   3.579
24722SOL    HW276174   7.134   4.946   3.509
24723SOL     OW76175   5.953   5.454   3.414
24723SOL    HW176176   5.868   5.498   3.401
24723SOL    HW276177   5.926   5.373   3.461
24724SOL     OW76178   7.285   4.621   3.134
24724SOL    HW176179   7.277   4.528   3.106
24724SOL    HW276180   7.249   4.670   3.059
24725SOL     OW76181   6.779   4.039   2.342
24725SOL    HW176182   6.857   3.980   2.329
24725SOL    HW276183   6.809   4.096   2.417
24726SOL     OW76184   6.193   4.464   2.528
24726SOL    HW176185   6.216   4.558   2.522
24726SOL    HW276186   6.115   4.459   2.471
24727SOL     OW76187   7.350   4.090   3.495
24727SOL    HW176188   7.312   4.102   3.406
24727SOL    HW276189   7.276   4.046   3.540
24728SOL     OW76190   7.315   4.706   3.394
24728SOL    HW176191   7.390   4.764   3.411
24728SOL    HW276192   7.329   4.681   3.301
24729SOL     OW76193   6.441   5.090   1.892
24729SOL    HW176194   6.415   5.101   1.985
24729SOL    HW276195   6.459   5.181   1.862
24730SOL     OW76196   6.230   5.534   2.785
24730SOL    HW176197   6.225   5.627   2.760
24730SOL    HW276198   6.325   5.518   2.794
24731SOL     OW76199   6.454   4.665   2.714
24731SOL    HW176200   6.511   4.596   2.751
24731SOL    HW276201   6.434   4.721   2.791
24732SOL     OW76202   6.686   4.736   1.964
24732SOL    HW176203   6.645   4.782   1.889
24732SOL    HW276204   6.738   4.668   1.920
24733SOL     OW76205   7.463   5.282   2.688
24733SOL    HW176206   7.373   5.289   2.656
24733SOL    HW276207   7.458   5.219   2.760
24734SOL     OW76208   5.842   5.048   3.738
24734SOL    HW176209   5.760   4.996   3.736
24734SOL    HW276210   5.842   5.073   3.833
24735SOL     OW76211   5.669   4.986   2.531
24735SOL    HW176212   5.644   4.925   2.602
24735SOL    HW276213   5.752   4.947   2.500
24736SOL     OW76214   6.262   5.118   3.467
24736SOL    HW176215   6.189   5.071   3.512
24736SOL    HW276216   6.254   5.207   3.506
24737SOL     OW76217   7.418   3.904   3.100
24737SOL    HW176218   7.433   3.809   3.107
24737SOL    HW276219   7.426   3.917   3.003
24738SOL     OW76220   6.032   4.142   2.391
24738SOL    HW176221   6.062   4.064   2.342
24738SOL    HW276222   5.977   4.104   2.462
24739SOL     OW76223   7.319   5.207   2.943
24739SOL    HW176224   7.237   5.188   2.895
24739SOL    HW276225   7.305   5.155   3.023
24740SOL     OW76226   5.908   4.267   3.154
24740SOL    HW176227   5.973   4.221   3.210
24740SOL    HW276228   5.931   4.238   3.065
24741SOL     OW76229   6.412   5.318   2.536
24741SOL    HW176230   6.401   5.351   2.446
24741SOL    HW276231   6.329   5.271   2.552
24742SOL     OW76232   7.032   3.996   2.975
24742SOL    HW176233   7.068   3.917   3.018
24742SOL    HW276234   6.967   4.029   3.041
24743SOL     OW76235   6.604   3.729   3.022
24743SOL    HW176236   6.550   3.664   2.974
24743SOL    HW276237   6.693   3.687   3.019
24744SOL     OW76238   6.376   5.057   2.173
24744SOL    HW176239   6.347   4.964   2.181
24744SOL    HW276240   6.448   5.060   2.237
24745SOL     OW76241   6.183   5.284   3.127
24745SOL    HW176242   6.179   5.372   3.171
24745SOL    HW276243   6.278   5.278   3.112
24746SOL     OW76244   6.892   3.758   2.019
24746SOL    HW176245   6.910   3.680   1.965
24746SOL    HW276246   6.810   3.731   2.066
24747SOL     OW76247   6.849   4.194   2.543
24747SOL    HW176248   6.798   4.276   2.555
24747SOL    HW276249   6.847   4.153   2.631
24748SOL     OW76250   7.180   3.931   2.729
24748SOL    HW176251   7.101   3.945   2.781
24748SOL    HW276252   7.183   4.011   2.673
24749SOL     OW76253   5.626   4.797   2.168
24749SOL    HW176254   5.721   4.786   2.155
24749SOL    HW276255   5.601   4.704   2.188
24750SOL     OW76256   6.458   5.369   2.195
24750SOL    HW176257   6.384   5.356   2.133
24750SOL    HW276258   6.436   5.453   2.241
24751SOL     OW76259   5.804   4.329   3.851
24751SOL    HW176260   5.715   4.360   3.877
24751SOL    HW276261   5.804   4.332   3.755
24752SOL     OW76262   6.140   4.990   4.873
24752SOL    HW176263   6.059   5.019   4.827
24752SOL    HW276264   6.161   5.068   4.925
24753SOL     OW76265   6.433   4.475   5.559
24753SOL    HW176266   6.432   4.535   5.635
24753SOL    HW276267   6.473   4.529   5.489
24754SOL     OW76268   6.281   4.878   5.570
24754SOL    HW176269   6.324   4.964   5.592
24754SOL    HW276270   6.202   4.906   5.517
24755SOL     OW76271   5.932   5.143   4.779
24755SOL    HW176272   5.836   5.164   4.768
24755SOL    HW276273   5.975   5.208   4.721
24756SOL     OW76274   5.778   5.169   4.257
24756SOL    HW176275   5.825   5.220   4.324
24756SOL    HW276276   5.750   5.089   4.306
24757SOL     OW76277   5.841   4.764   4.640
24757SOL    HW176278   5.926   4.798   4.606
24757SOL    HW276279   5.797   4.843   4.680
24758SOL     OW76280   6.212   5.538   5.181
24758SOL    HW176281   6.125   5.508   5.213
24758SOL    HW276282   6.220   5.625   5.221
24759SOL     OW76283   6.160   4.723   3.839
24759SOL    HW176284   6.219   4.770   3.777
24759SOL    HW276285   6.191   4.758   3.925
24760SOL     OW76286   7.177   3.846   5.222
24760SOL    HW176287   7.116   3.913   5.188
24760SOL    HW276288   7.206   3.886   5.307
24761SOL     OW76289   7.442   5.489   4.109
24761SOL    HW176290   7.470   5.460   4.196
24761SOL    HW276291   7.483   5.576   4.098
24762SOL     OW76292   5.618   5.324   3.832
24762SOL    HW176293   5.615   5.230   3.856
24762SOL    HW276294   5.620   5.366   3.920
24763SOL     OW76295   5.670   4.471   5.294
24763SOL    HW176296   5.760   4.499   5.313
24763SOL    HW276297   5.626   4.554   5.270
24764SOL     OW76298   6.185   5.093   4.465
24764SOL    HW176299   6.151   5.002   4.474
24764SOL    HW276300   6.154   5.119   4.377
24765SOL     OW76301   5.749   4.648   5.035
24765SOL    HW176302   5.835   4.638   4.992
24765SOL    HW276303   5.687   4.656   4.961
24766SOL     OW76304   7.234   5.473   4.304
24766SOL    HW176305   7.158   5.424   4.268
24766SOL    HW276306   7.271   5.406   4.364
24767SOL     OW76307   6.160   4.441   3.973
24767SOL    HW176308   6.212   4.507   3.927
24767SOL    HW276309   6.091   4.494   4.015
24768SOL     OW76310   7.145   5.455   3.973
24768SOL    HW176311   7.211   5.423   4.035
24768SOL    HW276312   7.107   5.372   3.937
24769SOL     OW76313   6.373   4.319   5.198
24769SOL    HW176314   6.347   4.288   5.287
24769SOL    HW276315   6.312   4.274   5.138
24770SOL     OW76316   6.958   4.167   5.379
24770SOL    HW176317   6.945   4.257   5.417
24770SOL    HW276318   6.995   4.117   5.454
24771SOL     OW76319   6.531   4.603   5.311
24771SOL    HW176320   6.579   4.534   5.263
24771SOL    HW276321   6.488   4.651   5.238
24772SOL     OW76322   6.648   4.388   4.142
24772SOL    HW176323   6.638   4.457   4.209
24772SOL    HW276324   6.557   4.355   4.126
24773SOL     OW76325   5.696   4.612   4.463
24773SOL    HW176326   5.769   4.576   4.515
24773SOL    HW276327   5.687   4.699   4.503
24774SOL     OW76328   6.418   4.067   3.859
24774SOL    HW176329   6.505   4.104   3.842
24774SOL    HW276330   6.438   3.974   3.877
24775SOL     OW76331   6.146   3.912   4.556
24775SOL    HW176332   6.207   3.924   4.631
24775SOL    HW276333   6.196   3.948   4.483
24776SOL     OW76334   6.519   5.184   4.200
24776SOL    HW176335   6.512   5.264   4.145
24776SOL    HW276336   6.604   5.193   4.244
24777SOL     OW76337   5.957   5.522   4.652
24777SOL    HW176338   5.999   5.436   4.669
24777SOL    HW276339   5.978   5.533   4.557
24778SOL     OW76340   5.898   4.646   3.960
24778SOL    HW176341   5.973   4.704   3.948
24778SOL    HW276342   5.882   4.609   3.873
24779SOL     OW76343   6.065   4.948   5.451
24779SOL    HW176344   6.036   4.965   5.359
24779SOL    HW276345   5.982   4.968   5.500
24780SOL     OW76346   6.679   5.486   3.961
24780SOL    HW176347   6.601   5.445   4.002
24780SOL    HW276348   6.700   5.426   3.887
24781SOL     OW76349   6.092   5.431   4.094
24781SOL    HW176350   6.036   5.484   4.153
24781SOL    HW276351   6.124   5.495   4.030
24782SOL     OW76352   6.526   5.427   4.639
24782SOL    HW176353   6.609   5.382   4.614
24782SOL    HW276354   6.461   5.368   4.597
24783SOL     OW76355   6.232   3.841   3.789
24783SOL    HW176356   6.294   3.773   3.816
24783SOL    HW276357   6.190   3.801   3.711
24784SOL     OW76358   6.357   3.992   5.448
24784SOL    HW176359   6.432   3.930   5.442
24784SOL    HW276360   6.315   3.962   5.530
24785SOL     OW76361   6.452   5.230   4.919
24785SOL    HW176362   6.446   5.217   4.822
24785SOL    HW276363   6.523   5.169   4.944
24786SOL     OW76364   6.940   4.293   5.120
24786SOL    HW176365   6.948   4.244   5.203
24786SOL    HW276366   6.971   4.382   5.143
24787SOL     OW76367   6.398   5.165   4.634
24787SOL    HW176368   6.468   5.099   4.656
24787SOL    HW276369   6.333   5.110   4.589
24788SOL     OW76370   6.151   3.780   4.226
24788SOL    HW176371   6.087   3.789   4.299
24788SOL    HW276372   6.139   3.865   4.182
24789SOL     OW76373   5.875   3.767   3.896
24789SOL    HW176374   5.934   3.843   3.904
24789SOL    HW276375   5.920   3.703   3.954
24790SOL     OW76376   6.659   4.400   5.167
24790SOL    HW176377   6.592   4.330   5.172
24790SOL    HW276378   6.742   4.353   5.181
24791SOL     OW76379   6.750   5.325   4.517
24791SOL    HW176380   6.777   5.388   4.447
24791SOL    HW276381   6.835   5.288   4.544
24792SOL     OW76382   6.831   5.511   4.334
24792SOL    HW176383   6.873   5.581   4.281
24792SOL    HW276384   6.763   5.561   4.385
24793SOL     OW76385   6.638   4.290   3.734
24793SOL    HW176386   6.570   4.359   3.722
24793SOL    HW276387   6.669   4.305   3.825
24794SOL     OW76388   6.083   5.164   3.888
24794SOL    HW176389   6.017   5.145   3.957
24794SOL    HW276390   6.047   5.118   3.812
24795SOL     OW76391   6.977   4.323   3.785
24795SOL    HW176392   6.917   4.287   3.854
24795SOL    HW276393   7.063   4.320   3.830
24796SOL     OW76394   6.077   3.937   3.990
24796SOL    HW176395   6.149   3.904   3.932
24796SOL    HW276396   6.065   4.028   3.957
24797SOL     OW76397   6.624   5.115   5.100
24797SOL    HW176398   6.539   5.072   5.124
24797SOL    HW276399   6.683   5.082   5.168
24798SOL     OW76400   6.519   4.856   5.416
24798SOL    HW176401   6.443   4.854   5.478
24798SOL    HW276402   6.537   4.762   5.401
24799SOL     OW76403   6.283   4.774   4.069
24799SOL    HW176404   6.262   4.753   4.161
24799SOL    HW276405   6.366   4.723   4.054
24800SOL     OW76406   6.012   4.531   4.998
24800SOL    HW176407   6.093   4.555   5.047
24800SOL    HW276408   5.970   4.471   5.060
24801SOL     OW76409   5.943   5.236   5.053
24801SOL    HW176410   5.916   5.223   4.960
24801SOL    HW276411   6.036   5.261   5.044
24802SOL     OW76412   6.006   4.463   5.352
24802SOL    HW176413   6.077   4.500   5.297
24802SOL    HW276414   6.034   4.372   5.366
24803SOL     OW76415   6.580   3.830   5.467
24803SOL    HW176416   6.632   3.911   5.452
24803SOL    HW276417   6.637   3.764   5.424
24804SOL     OW76418   6.810   4.239   3.992
24804SOL    HW176419   6.822   4.178   4.066
24804SOL    HW276420   6.763   4.312   4.038
24805SOL     OW76421   5.655   5.017   4.999
24805SOL    HW176422   5.683   4.967   5.078
24805SOL    HW276423   5.682   5.106   5.020
24806SOL     OW76424   5.877   3.783   4.342
24806SOL    HW176425   5.857   3.874   4.368
24806SOL    HW276426   5.891   3.739   4.428
24807SOL     OW76427   6.555   5.265   5.439
24807SOL    HW176428   6.500   5.300   5.367
24807SOL    HW276429   6.512   5.181   5.462
24808SOL     OW76430   7.479   5.226   5.333
24808SOL    HW176431   7.461   5.275   5.252
24808SOL    HW276432   7.541   5.282   5.381
24809SOL     OW76433   5.943   4.633   5.556
24809SOL    HW176434   6.033   4.670   5.562
24809SOL    HW276435   5.956   4.563   5.489
24810SOL     OW76436   7.095   3.997   3.851
24810SOL    HW176437   7.032   3.934   3.890
24810SOL    HW276438   7.135   4.038   3.929
24811SOL     OW76439   6.895   4.589   3.753
24811SOL    HW176440   6.921   4.495   3.759
24811SOL    HW276441   6.924   4.614   3.663
24812SOL     OW76442   5.875   4.519   4.730
24812SOL    HW176443   5.876   4.612   4.697
24812SOL    HW276444   5.949   4.517   4.791
24813SOL     OW76445   6.703   4.074   5.421
24813SOL    HW176446   6.668   4.142   5.480
24813SOL    HW276447   6.791   4.110   5.399
24814SOL     OW76448   6.817   3.898   5.196
24814SOL    HW176449   6.744   3.957   5.223
24814SOL    HW276450   6.846   3.937   5.112
24815SOL     OW76451   5.596   5.029   3.880
24815SOL    HW176452   5.500   5.039   3.861
24815SOL    HW276453   5.597   4.952   3.942
24816SOL     OW76454   6.104   5.300   4.644
24816SOL    HW176455   6.169   5.373   4.649
24816SOL    HW276456   6.152   5.231   4.596
24817SOL     OW76457   5.754   4.262   5.439
24817SOL    HW176458   5.793   4.242   5.353
24817SOL    HW276459   5.688   4.329   5.415
24818SOL     OW76460   6.419   4.275   4.048
24818SOL    HW176461   6.391   4.205   3.988
24818SOL    HW276462   6.337   4.321   4.070
24819SOL     OW76463   5.830   5.268   5.445
24819SOL    HW176464   5.770   5.296   5.518
24819SOL    HW276465   5.851   5.176   5.470
24820SOL     OW76466   6.495   5.387   5.183
24820SOL    HW176467   6.481   5.330   5.106
24820SOL    HW276468   6.582   5.424   5.163
24821SOL     OW76469   6.032   4.196   3.917
24821SOL    HW176470   6.091   4.272   3.933
24821SOL    HW276471   5.947   4.240   3.904
24822SOL     OW76472   5.772   4.863   5.196
24822SOL    HW176473   5.717   4.848   5.275
24822SOL    HW276474   5.763   4.779   5.148
24823SOL     OW76475   6.882   4.522   4.017
24823SOL    HW176476   6.812   4.561   4.072
24823SOL    HW276477   6.871   4.565   3.932
24824SOL     OW76478   6.838   5.421   4.815
24824SOL    HW176479   6.924   5.465   4.818
24824SOL    HW276480   6.822   5.396   4.906
24825SOL     OW76481   5.697   4.941   4.751
24825SOL    HW176482   5.689   4.986   4.838
24825SOL    HW276483   5.615   4.968   4.708
24826SOL     OW76484   6.294   5.397   5.411
24826SOL    HW176485   6.240   5.475   5.433
24826SOL    HW276486   6.317   5.410   5.318
24827SOL     OW76487   7.313   3.864   4.310
24827SOL    HW176488   7.376   3.876   4.238
24827SOL    HW276489   7.311   3.767   4.322
24828SOL     OW76490   7.007   5.344   4.201
24828SOL    HW176491   6.982   5.356   4.109
24828SOL    HW276492   6.934   5.388   4.250
24829SOL     OW76493   6.396   4.989   5.159
24829SOL    HW176494   6.365   5.032   5.241
24829SOL    HW276495   6.328   5.017   5.096
24830SOL     OW76496   6.264   5.359   3.846
24830SOL    HW176497   6.285   5.319   3.760
24830SOL    HW276498   6.201   5.292   3.882
24831SOL     OW76499   7.452   3.893   4.695
24831SOL    HW176500   7.465   3.797   4.683
24831SOL    HW276501   7.355   3.902   4.690
24832SOL     OW76502   6.760   5.347   3.742
24832SOL    HW176503   6.759   5.257   3.781
24832SOL    HW276504   6.692   5.342   3.673
24833SOL     OW76505   6.404   4.725   5.098
24833SOL    HW176506   6.422   4.743   5.003
24833SOL    HW276507   6.398   4.817   5.131
24834SOL     OW76508   6.507   4.643   4.008
24834SOL    HW176509   6.561   4.668   3.930
24834SOL    HW276510   6.574   4.643   4.079
24835SOL     OW76511   5.973   5.033   5.224
24835SOL    HW176512   5.957   5.104   5.159
24835SOL    HW276513   5.896   4.974   5.209
24836SOL     OW76514   7.162   4.960   5.055
24836SOL    HW176515   7.257   4.953   5.073
24836SOL    HW276516   7.159   5.000   4.968
24837SOL     OW76517   6.165   5.191   4.210
24837SOL    HW176518   6.226   5.165   4.140
24837SOL    HW276519   6.142   5.282   4.181
24838SOL     OW76520   5.823   5.115   4.001
24838SOL    HW176521   5.732   5.081   3.995
24838SOL    HW276522   5.827   5.137   4.096
24839SOL     OW76523   5.706   4.742   5.451
24839SOL    HW176524   5.627   4.715   5.501
24839SOL    HW276525   5.780   4.704   5.501
24840SOL     OW76526   5.680   4.043   3.735
24840SOL    HW176527   5.585   4.060   3.740
24840SOL    HW276528   5.712   4.124   3.691
24841SOL     OW76529   7.026   4.575   5.095
24841SOL    HW176530   7.009   4.660   5.053
24841SOL    HW276531   7.120   4.580   5.118
24842SOL     OW76532   5.632   3.895   4.017
24842SOL    HW176533   5.634   3.982   3.976
24842SOL    HW276534   5.719   3.860   3.993
24843SOL     OW76535   6.733   5.113   3.889
24843SOL    HW176536   6.684   5.059   3.953
24843SOL    HW276537   6.824   5.104   3.920
24844SOL     OW76538   6.218   4.538   5.172
24844SOL    HW176539   6.281   4.611   5.160
24844SOL    HW276540   6.279   4.463   5.184
24845SOL     OW76541   6.285   4.268   5.448
24845SOL    HW176542   6.330   4.332   5.506
24845SOL    HW276543   6.323   4.183   5.474
24846SOL     OW76544   5.965   5.475   5.306
24846SOL    HW176545   5.873   5.501   5.294
24846SOL    HW276546   5.953   5.379   5.323
24847SOL     OW76547   6.415   5.106   3.749
24847SOL    HW176548   6.412   5.100   3.847
24847SOL    HW276549   6.484   5.172   3.733
24848SOL     OW76550   6.254   5.517   4.667
24848SOL    HW176551   6.219   5.606   4.685
24848SOL    HW276552   6.349   5.526   4.675
24849SOL     OW76553   6.647   4.693   3.787
24849SOL    HW176554   6.648   4.774   3.734
24849SOL    HW276555   6.737   4.659   3.773
24850SOL     OW76556   5.823   5.011   5.525
24850SOL    HW176557   5.745   4.968   5.488
24850SOL    HW276558   5.801   5.028   5.619
24851SOL     OW76559   5.724   4.925   4.375
24851SOL    HW176560   5.700   4.921   4.468
24851SOL    HW276561   5.804   4.871   4.369
24852SOL     OW76562   6.261   5.132   5.354
24852SOL    HW176563   6.176   5.094   5.382
24852SOL    HW276564   6.259   5.222   5.393
24853SOL     OW76565   7.417   3.895   4.973
24853SOL    HW176566   7.415   3.800   4.958
24853SOL    HW276567   7.428   3.931   4.884
24854SOL     OW76568   6.029   4.030   4.243
24854SOL    HW176569   6.050   4.036   4.150
24854SOL    HW276570   5.940   4.067   4.251
24855SOL     OW76571   6.380   5.327   4.386
24855SOL    HW176572   6.433   5.287   4.316
24855SOL    HW276573   6.314   5.259   4.404
24856SOL     OW76574   6.615   3.678   4.835
24856SOL    HW176575   6.629   3.584   4.829
24856SOL    HW276576   6.707   3.710   4.841
24857SOL     OW76577   6.377   5.044   4.021
24857SOL    HW176578   6.353   4.955   4.053
24857SOL    HW276579   6.437   5.076   4.090
24858SOL     OW76580   6.218   5.289   5.049
24858SOL    HW176581   6.229   5.382   5.078
24858SOL    HW276582   6.301   5.272   5.001
24859SOL     OW76583   6.776   4.320   4.426
24859SOL    HW176584   6.871   4.309   4.418
24859SOL    HW276585   6.752   4.259   4.497
24860SOL     OW76586   7.182   3.904   4.636
24860SOL    HW176587   7.106   3.945   4.680
24860SOL    HW276588   7.198   3.963   4.561
24861SOL     OW76589   5.639   4.824   4.048
24861SOL    HW176590   5.731   4.816   4.080
24861SOL    HW276591   5.610   4.730   4.058
24862SOL     OW76592   6.450   5.394   4.057
24862SOL    HW176593   6.378   5.384   3.992
24862SOL    HW276594   6.424   5.475   4.106
24863SOL     OW76595   5.802   3.906   6.593
24863SOL    HW176596   5.816   3.942   6.682
24863SOL    HW276597   5.713   3.937   6.571
24864SOL     OW76598   6.155   5.025   6.785
24864SOL    HW176599   6.070   5.026   6.736
24864SOL    HW276600   6.167   5.118   6.807
24865SOL     OW76601   7.136   5.240   6.302
24865SOL    HW176602   7.111   5.227   6.395
24865SOL    HW276603   7.058   5.204   6.257
24866SOL     OW76604   6.717   4.409   6.285
24866SOL    HW176605   6.747   4.495   6.249
24866SOL    HW276606   6.692   4.432   6.375
24867SOL     OW76607   6.385   4.901   6.685
24867SOL    HW176608   6.301   4.944   6.710
24867SOL    HW276609   6.375   4.892   6.589
24868SOL     OW76610   6.469   4.480   7.389
24868SOL    HW176611   6.445   4.545   7.456
24868SOL    HW276612   6.495   4.536   7.313
24869SOL     OW76613   6.274   4.877   7.397
24869SOL    HW176614   6.323   4.959   7.414
24869SOL    HW276615   6.189   4.910   7.362
24870SOL     OW76616   5.917   5.155   6.654
24870SOL    HW176617   5.838   5.127   6.604
24870SOL    HW276618   5.960   5.214   6.589
24871SOL     OW76619   7.057   5.217   6.968
24871SOL    HW176620   7.106   5.302   6.967
24871SOL    HW276621   6.984   5.235   7.030
24872SOL     OW76622   6.014   4.121   7.124
24872SOL    HW176623   6.095   4.077   7.095
24872SOL    HW276624   5.944   4.062   7.092
24873SOL     OW76625   7.192   4.174   6.319
24873SOL    HW176626   7.099   4.169   6.290
24873SOL    HW276627   7.206   4.269   6.313
24874SOL     OW76628   6.714   5.076   7.257
24874SOL    HW176629   6.750   5.067   7.345
24874SOL    HW276630   6.672   4.990   7.244
24875SOL     OW76631   6.205   5.527   7.007
24875SOL    HW176632   6.124   5.502   7.055
24875SOL    HW276633   6.216   5.620   7.033
24876SOL     OW76634   6.179   4.698   5.728
24876SOL    HW176635   6.209   4.769   5.666
24876SOL    HW276636   6.253   4.700   5.790
24877SOL     OW76637   7.191   3.834   7.078
24877SOL    HW176638   7.202   3.898   7.007
24877SOL    HW276639   7.192   3.890   7.157
24878SOL     OW76640   7.439   5.450   5.951
24878SOL    HW176641   7.513   5.435   6.013
24878SOL    HW276642   7.455   5.541   5.923
24879SOL     OW76643   7.312   4.639   6.223
24879SOL    HW176644   7.378   4.606   6.160
24879SOL    HW276645   7.260   4.698   6.165
24880SOL     OW76646   7.230   4.832   6.045
24880SOL    HW176647   7.309   4.854   5.994
24880SOL    HW276648   7.229   4.901   6.114
24881SOL     OW76649   5.701   4.462   7.162
24881SOL    HW176650   5.792   4.497   7.161
24881SOL    HW276651   5.648   4.542   7.172
24882SOL     OW76652   6.875   4.951   7.013
24882SOL    HW176653   6.903   4.876   6.957
24882SOL    HW276654   6.937   4.944   7.088
24883SOL     OW76655   5.754   4.680   6.855
24883SOL    HW176656   5.848   4.655   6.843
24883SOL    HW276657   5.711   4.630   6.785
24884SOL     OW76658   6.777   5.521   7.214
24884SOL    HW176659   6.780   5.594   7.149
24884SOL    HW276660   6.792   5.443   7.158
24885SOL     OW76661   5.915   3.944   7.428
24885SOL    HW176662   5.971   4.016   7.398
24885SOL    HW276663   5.831   3.992   7.441
24886SOL     OW76664   7.063   5.140   6.544
24886SOL    HW176665   6.991   5.168   6.603
24886SOL    HW276666   7.028   5.056   6.509
24887SOL     OW76667   7.269   5.453   6.194
24887SOL    HW176668   7.280   5.429   6.101
24887SOL    HW276669   7.219   5.376   6.229
24888SOL     OW76670   6.187   4.436   5.858
24888SOL    HW176671   6.198   4.506   5.793
24888SOL    HW276672   6.124   4.475   5.919
24889SOL     OW76673   6.853   4.060   6.502
24889SOL    HW176674   6.762   4.027   6.522
24889SOL    HW276675   6.906   4.029   6.577
24890SOL     OW76676   6.393   4.362   7.040
24890SOL    HW176677   6.368   4.333   7.131
24890SOL    HW276678   6.350   4.293   6.986
24891SOL     OW76679   6.976   4.202   7.263
24891SOL    HW176680   6.987   4.264   7.338
24891SOL    HW276681   7.036   4.129   7.287
24892SOL     OW76682   6.544   4.613   7.163
24892SOL    HW176683   6.586   4.531   7.127
24892SOL    HW276684   6.497   4.645   7.083
24893SOL     OW76685   6.547   4.110   6.836
24893SOL    HW176686   6.455   4.137   6.843
24893SOL    HW276687   6.555   4.081   6.744
24894SOL     OW76688   6.615   4.419   5.998
24894SOL    HW176689   6.602   4.423   6.094
24894SOL    HW276690   6.540   4.362   5.969
24895SOL     OW76691   5.701   5.580   7.169
24895SOL    HW176692   5.699   5.556   7.263
24895SOL    HW276693   5.620   5.540   7.135
24896SOL     OW76694   6.440   4.067   5.730
24896SOL    HW176695   6.499   4.128   5.683
24896SOL    HW276696   6.496   3.991   5.748
24897SOL     OW76697   7.302   4.313   7.425
24897SOL    HW176698   7.265   4.388   7.374
24897SOL    HW276699   7.330   4.255   7.352
24898SOL     OW76700   6.952   4.905   6.151
24898SOL    HW176701   7.017   4.878   6.086
24898SOL    HW276702   6.880   4.939   6.093
24899SOL     OW76703   6.590   5.194   6.099
24899SOL    HW176704   6.569   5.234   6.013
24899SOL    HW276705   6.520   5.232   6.154
24900SOL     OW76706   5.938   5.546   6.485
24900SOL    HW176707   5.916   5.474   6.423
24900SOL    HW276708   6.006   5.595   6.436
24901SOL     OW76709   7.392   4.779   6.484
24901SOL    HW176710   7.354   4.763   6.396
24901SOL    HW276711   7.314   4.772   6.543
24902SOL     OW76712   6.809   5.291   7.070
24902SOL    HW176713   6.786   5.229   7.141
24902SOL    HW276714   6.760   5.250   6.996
24903SOL     OW76715   5.921   4.724   5.819
24903SOL    HW176716   6.016   4.739   5.806
24903SOL    HW276717   5.894   4.692   5.732
24904SOL     OW76718   7.091   4.465   6.305
24904SOL    HW176719   7.062   4.453   6.396
24904SOL    HW276720   7.161   4.531   6.310
24905SOL     OW76721   6.047   4.996   7.312
24905SOL    HW176722   6.005   4.987   7.223
24905SOL    HW276723   5.967   5.011   7.365
24906SOL     OW76724   5.757   4.003   7.072
24906SOL    HW176725   5.710   4.087   7.052
24906SOL    HW276726   5.698   3.962   7.136
24907SOL     OW76727   6.147   5.534   5.891
24907SOL    HW176728   6.110   5.471   5.955
24907SOL    HW276729   6.182   5.472   5.823
24908SOL     OW76730   7.013   3.814   6.033
24908SOL    HW176731   6.978   3.787   5.946
24908SOL    HW276732   7.071   3.887   6.008
24909SOL     OW76733   5.825   5.522   6.781
24909SOL    HW176734   5.887   5.470   6.833
24909SOL    HW276735   5.847   5.499   6.690
24910SOL     OW76736   6.524   5.408   6.457
24910SOL    HW176737   6.611   5.366   6.450
24910SOL    HW276738   6.473   5.359   6.390
24911SOL     OW76739   7.130   3.985   7.317
24911SOL    HW176740   7.125   3.990   7.416
24911SOL    HW276741   7.074   3.908   7.301
24912SOL     OW76742   6.362   3.996   7.324
24912SOL    HW176743   6.439   3.935   7.331
24912SOL    HW276744   6.307   3.968   7.399
24913SOL     OW76745   6.450   5.246   6.777
24913SOL    HW176746   6.448   5.230   6.681
24913SOL    HW276747   6.517   5.184   6.807
24914SOL     OW76748   6.920   4.318   7.017
24914SOL    HW176749   6.955   4.288   7.103
24914SOL    HW276750   6.975   4.395   6.996
24915SOL     OW76751   6.396   5.147   6.497
24915SOL    HW176752   6.488   5.128   6.471
24915SOL    HW276753   6.348   5.112   6.421
24916SOL     OW76754   6.518   4.272   6.483
24916SOL    HW176755   6.476   4.263   6.394
24916SOL    HW276756   6.550   4.182   6.495
24917SOL     OW76757   6.524   3.932   6.125
24917SOL    HW176758   6.455   3.966   6.066
24917SOL    HW276759   6.601   3.984   6.099
24918SOL     OW76760   6.675   4.399   7.069
24918SOL    HW176761   6.621   4.320   7.061
24918SOL    HW276762   6.766   4.367   7.056
24919SOL     OW76763   6.844   5.274   6.342
24919SOL    HW176764   6.796   5.323   6.274
24919SOL    HW276765   6.885   5.343   6.395
24920SOL     OW76766   6.618   4.275   5.600
24920SOL    HW176767   6.557   4.351   5.591
24920SOL    HW276768   6.698   4.321   5.633
24921SOL     OW76769   5.681   4.250   7.008
24921SOL    HW176770   5.748   4.281   6.946
24921SOL    HW276771   5.663   4.331   7.060
24922SOL     OW76772   6.134   3.993   6.766
24922SOL    HW176773   6.182   3.910   6.755
24922SOL    HW276774   6.046   3.963   6.798
24923SOL     OW76775   6.634   3.768   6.319
24923SOL    HW176776   6.589   3.827   6.256
24923SOL    HW276777   6.564   3.751   6.383
24924SOL     OW76778   6.996   4.890   6.442
24924SOL    HW176779   6.929   4.822   6.458
24924SOL    HW276780   6.986   4.904   6.346
24925SOL     OW76781   7.037   4.304   6.598
24925SOL    HW176782   7.018   4.212   6.574
24925SOL    HW276783   7.111   4.294   6.660
24926SOL     OW76784   7.451   4.560   5.977
24926SOL    HW176785   7.494   4.483   6.020
24926SOL    HW276786   7.404   4.519   5.904
24927SOL     OW76787   7.277   5.003   6.245
24927SOL    HW176788   7.375   5.007   6.248
24927SOL    HW276789   7.247   5.089   6.278
24928SOL     OW76790   7.316   4.956   7.162
24928SOL    HW176791   7.405   4.917   7.157
24928SOL    HW276792   7.338   5.049   7.177
24929SOL     OW76793   6.658   5.098   6.952
24929SOL    HW176794   6.581   5.048   6.984
24929SOL    HW276795   6.732   5.040   6.979
24930SOL     OW76796   7.197   5.328   7.218
24930SOL    HW176797   7.194   5.362   7.127
24930SOL    HW276798   7.280   5.277   7.219
24931SOL     OW76799   6.708   4.960   6.703
24931SOL    HW176800   6.617   4.955   6.735
24931SOL    HW276801   6.695   4.953   6.607
24932SOL     OW76802   7.185   4.828   6.655
24932SOL    HW176803   7.190   4.892   6.729
24932SOL    HW276804   7.127   4.875   6.593
24933SOL     OW76805   6.508   3.815   6.987
24933SOL    HW176806   6.531   3.801   6.893
24933SOL    HW276807   6.585   3.865   7.019
24934SOL     OW76808   6.580   4.830   7.328
24934SOL    HW176809   6.492   4.866   7.345
24934SOL    HW276810   6.566   4.768   7.255
24935SOL     OW76811   5.982   4.535   6.843
24935SOL    HW176812   6.066   4.528   6.891
24935SOL    HW276813   5.950   4.443   6.842
24936SOL     OW76814   6.855   4.103   6.868
24936SOL    HW176815   6.880   4.186   6.913
24936SOL    HW276816   6.770   4.127   6.827
24937SOL     OW76817   5.650   5.295   6.948
24937SOL    HW176818   5.616   5.362   6.887
24937SOL    HW276819   5.746   5.295   6.929
24938SOL     OW76820   6.886   5.195   6.746
24938SOL    HW176821   6.933   5.176   6.830
24938SOL    HW276822   6.817   5.126   6.745
24939SOL     OW76823   7.192   4.347   6.063
24939SOL    HW176824   7.138   4.385   6.134
24939SOL    HW276825   7.149   4.383   5.984
24940SOL     OW76826   5.921   5.234   6.912
24940SOL    HW176827   5.909   5.198   6.822
24940SOL    HW276828   6.017   5.250   6.910
24941SOL     OW76829   5.990   4.461   7.191
24941SOL    HW176830   6.046   4.507   7.126
24941SOL    HW276831   6.031   4.373   7.192
24942SOL     OW76832   7.209   4.495   7.261
24942SOL    HW176833   7.122   4.538   7.265
24942SOL    HW276834   7.250   4.539   7.184
24943SOL     OW76835   6.577   3.830   7.339
24943SOL    HW176836   6.638   3.904   7.329
24943SOL    HW276837   6.630   3.759   7.300
24944SOL     OW76838   6.076   3.735   7.348
24944SOL    HW176839   6.045   3.687   7.269
24944SOL    HW276840   6.013   3.809   7.352
24945SOL     OW76841   6.933   4.576   6.614
24945SOL    HW176842   6.843   4.551   6.586
24945SOL    HW276843   6.975   4.488   6.612
24946SOL     OW76844   6.820   4.210   5.874
24946SOL    HW176845   6.786   4.148   5.940
24946SOL    HW276846   6.755   4.281   5.872
24947SOL     OW76847   5.885   3.925   6.851
24947SOL    HW176848   5.835   3.954   6.929
24947SOL    HW276849   5.852   3.833   6.841
24948SOL     OW76850   5.665   5.033   6.864
24948SOL    HW176851   5.656   4.966   6.933
24948SOL    HW276852   5.638   5.116   6.907
24949SOL     OW76853   6.334   4.365   6.666
24949SOL    HW176854   6.379   4.309   6.599
24949SOL    HW276855   6.327   4.449   6.620
24950SOL     OW76856   7.351   4.673   7.436
24950SOL    HW176857   7.308   4.617   7.370
24950SOL    HW276858   7.284   4.676   7.506
24951SOL     OW76859   7.160   4.060   5.999
24951SOL    HW176860   7.232   4.015   6.045
24951SOL    HW276861   7.184   4.154   6.008
24952SOL     OW76862   6.679   4.474   6.571
24952SOL    HW176863   6.638   4.506   6.653
24952SOL    HW276864   6.623   4.396   6.549
24953SOL     OW76865   6.555   5.292   7.281
24953SOL    HW176866   6.543   5.344   7.199
24953SOL    HW276867   6.594   5.210   7.248
24954SOL     OW76868   7.441   5.211   7.195
24954SOL    HW176869   7.462   5.236   7.103
24954SOL    HW276870   7.520   5.244   7.242
24955SOL     OW76871   5.941   4.625   7.392
24955SOL    HW176872   6.028   4.640   7.430
24955SOL    HW276873   5.957   4.554   7.327
24956SOL     OW76874   7.030   3.989   5.711
24956SOL    HW176875   7.007   3.909   5.759
24956SOL    HW276876   7.095   4.033   5.766
24957SOL     OW76877   6.650   5.090   6.419
24957SOL    HW176878   6.649   5.007   6.367
24957SOL    HW276879   6.718   5.144   6.374
24958SOL     OW76880   6.742   4.081   7.294
24958SOL    HW176881   6.693   4.144   7.350
24958SOL    HW276882   6.827   4.127   7.284
24959SOL     OW76883   6.753   3.917   7.078
24959SOL    HW176884   6.752   3.982   7.151
24959SOL    HW276885   6.794   3.968   7.006
24960SOL     OW76886   6.101   5.307   6.510
24960SOL    HW176887   6.129   5.397   6.535
24960SOL    HW276888   6.185   5.270   6.481
24961SOL     OW76889   6.568   4.508   6.826
24961SOL    HW176890   6.618   4.472   6.901
24961SOL    HW276891   6.481   4.466   6.838
24962SOL     OW76892   5.641   4.215   6.667
24962SOL    HW176893   5.733   4.222   6.640
24962SOL    HW276894   5.643   4.239   6.760
24963SOL     OW76895   5.827   4.238   7.307
24963SOL    HW176896   5.882   4.195   7.239
24963SOL    HW276897   5.781   4.306   7.254
24964SOL     OW76898   6.972   4.641   7.241
24964SOL    HW176899   6.995   4.736   7.233
24964SOL    HW276900   6.967   4.616   7.147
24965SOL     OW76901   6.407   4.288   5.893
24965SOL    HW176902   6.397   4.208   5.838
24965SOL    HW276903   6.324   4.336   5.876
24966SOL     OW76904   7.231   4.346   6.792
24966SOL    HW176905   7.206   4.276   6.853
24966SOL    HW276906   7.312   4.310   6.751
24967SOL     OW76907   5.832   5.284   7.306
24967SOL    HW176908   5.803   5.345   7.375
24967SOL    HW276909   5.834   5.198   7.352
24968SOL     OW76910   6.265   4.202   6.865
24968SOL    HW176911   6.219   4.127   6.821
24968SOL    HW276912   6.276   4.266   6.791
24969SOL     OW76913   6.498   5.424   7.049
24969SOL    HW176914   6.493   5.383   6.961
24969SOL    HW276915   6.476   5.517   7.028
24970SOL     OW76916   5.692   4.844   7.050
24970SOL    HW176917   5.711   4.790   7.129
24970SOL    HW276918   5.712   4.781   6.977
24971SOL     OW76919   6.911   4.760   6.828
24971SOL    HW176920   6.931   4.705   6.750
24971SOL    HW276921   6.837   4.814   6.794
24972SOL     OW76922   6.892   4.589   5.907
24972SOL    HW176923   6.807   4.552   5.936
24972SOL    HW276924   6.894   4.551   5.818
24973SOL     OW76925   7.329   5.476   6.716
24973SOL    HW176926   7.402   5.498   6.657
24973SOL    HW276927   7.322   5.378   6.702
24974SOL     OW76928   6.832   5.467   6.700
24974SOL    HW176929   6.907   5.482   6.640
24974SOL    HW276930   6.842   5.372   6.721
24975SOL     OW76931   5.679   4.987   6.602
24975SOL    HW176932   5.687   5.010   6.696
24975SOL    HW276933   5.594   4.940   6.603
24976SOL     OW76934   6.276   5.369   7.326
24976SOL    HW176935   6.238   5.458   7.313
24976SOL    HW276936   6.360   5.373   7.278
24977SOL     OW76937   7.338   3.880   6.117
24977SOL    HW176938   7.376   3.863   6.029
24977SOL    HW276939   7.299   3.794   6.141
24978SOL     OW76940   5.724   5.521   7.446
24978SOL    HW176941   5.689   5.449   7.502
24978SOL    HW276942   5.750   5.586   7.513
24979SOL     OW76943   6.865   4.631   6.233
24979SOL    HW176944   6.941   4.571   6.235
24979SOL    HW276945   6.896   4.705   6.179
24980SOL     OW76946   6.397   4.987   7.022
24980SOL    HW176947   6.367   5.035   7.102
24980SOL    HW276948   6.332   5.016   6.956
24981SOL     OW76949   6.250   5.348   5.731
24981SOL    HW176950   6.306   5.312   5.660
24981SOL    HW276951   6.199   5.270   5.759
24982SOL     OW76952   7.202   5.440   6.971
24982SOL    HW176953   7.248   5.457   6.887
24982SOL    HW276954   7.187   5.530   7.006
24983SOL     OW76955   7.434   3.888   6.562
24983SOL    HW176956   7.459   3.801   6.526
24983SOL    HW276957   7.347   3.905   6.520
24984SOL     OW76958   6.392   4.726   6.961
24984SOL    HW176959   6.415   4.730   6.866
24984SOL    HW276960   6.391   4.821   6.984
24985SOL     OW76961   6.495   4.622   5.819
24985SOL    HW176962   6.558   4.693   5.837
24985SOL    HW276963   6.529   4.549   5.873
24986SOL     OW76964   5.920   4.990   7.084
24986SOL    HW176965   5.917   5.065   7.023
24986SOL    HW276966   5.839   4.940   7.062
24987SOL     OW76967   7.189   5.024   6.853
24987SOL    HW176968   7.230   4.999   6.937
24987SOL    HW276969   7.130   5.096   6.882
24988SOL     OW76970   6.611   4.840   6.329
24988SOL    HW176971   6.528   4.791   6.347
24988SOL    HW276972   6.646   4.792   6.253
24989SOL     OW76973   6.609   3.971   6.587
24989SOL    HW176974   6.527   3.974   6.533
24989SOL    HW276975   6.603   3.883   6.629
24990SOL     OW76976   7.293   4.094   6.969
24990SOL    HW176977   7.357   4.166   6.959
24990SOL    HW276978   7.333   4.026   6.909
24991SOL     OW76979   5.822   5.103   5.775
24991SOL    HW176980   5.776   5.181   5.805
24991SOL    HW276981   5.915   5.124   5.798
24992SOL     OW76982   5.708   4.721   7.290
24992SOL    HW176983   5.634   4.700   7.350
24992SOL    HW276984   5.786   4.686   7.337
24993SOL     OW76985   6.262   3.888   7.088
24993SOL    HW176986   6.350   3.863   7.054
24993SOL    HW276987   6.284   3.938   7.169
24994SOL     OW76988   7.050   4.581   6.981
24994SOL    HW176989   7.000   4.645   6.928
24994SOL    HW276990   7.141   4.600   6.953
24995SOL     OW76991   6.199   4.539   7.022
24995SOL    HW176992   6.253   4.618   7.004
24995SOL    HW276993   6.270   4.472   7.027
24996SOL     OW76994   7.087   5.475   6.534
24996SOL    HW176995   7.128   5.520   6.460
24996SOL    HW276996   7.156   5.476   6.602
24997SOL     OW76997   6.314   4.271   7.275
24997SOL    HW176998   6.358   4.328   7.341
24997SOL    HW276999   6.336   4.180   7.304
24998SOL     OW77000   7.049   4.905   7.214
24998SOL    HW177001   7.038   4.911   7.311
24998SOL    HW277002   7.143   4.930   7.204
24999SOL     OW77003   5.958   5.475   7.155
24999SOL    HW177004   5.874   5.522   7.140
24999SOL    HW277005   5.926   5.391   7.193
25000SOL     OW77006   7.287   4.608   6.826
25000SOL    HW177007   7.261   4.517   6.799
25000SOL    HW277008   7.251   4.663   6.754
25001SOL     OW77009   6.799   4.028   6.085
25001SOL    HW177010   6.873   3.973   6.059
25001SOL    HW277011   6.839   4.092   6.147
25002SOL     OW77012   7.355   4.102   7.227
25002SOL    HW177013   7.323   4.109   7.134
25002SOL    HW277014   7.279   4.056   7.269
25003SOL     OW77015   7.331   4.655   7.085
25003SOL    HW177016   7.326   4.751   7.087
25003SOL    HW277017   7.332   4.637   6.988
25004SOL     OW77018   6.410   5.098   5.645
25004SOL    HW177019   6.392   5.074   5.739
25004SOL    HW277020   6.507   5.090   5.649
25005SOL     OW77021   6.244   5.536   6.533
25005SOL    HW177022   6.222   5.622   6.491
25005SOL    HW277023   6.329   5.512   6.492
25006SOL     OW77024   7.453   5.275   6.437
25006SOL    HW177025   7.364   5.267   6.401
25006SOL    HW277026   7.466   5.191   6.483
25007SOL     OW77027   5.821   5.049   7.444
25007SOL    HW177028   5.750   4.989   7.416
25007SOL    HW277029   5.802   5.058   7.539
25008SOL     OW77030   6.274   5.124   7.217
25008SOL    HW177031   6.193   5.073   7.235
25008SOL    HW277032   6.252   5.211   7.256
25009SOL     OW77033   7.387   3.896   6.821
25009SOL    HW177034   7.403   3.800   6.825
25009SOL    HW277035   7.402   3.912   6.725
25010SOL     OW77036   7.296   5.218   6.678
25010SOL    HW177037   7.219   5.195   6.625
25010SOL    HW277038   7.294   5.146   6.744
25011SOL     OW77039   5.917   4.261   6.841
25011SOL    HW177040   5.978   4.215   6.900
25011SOL    HW277041   5.939   4.220   6.756
25012SOL     OW77042   6.380   5.326   6.238
25012SOL    HW177043   6.380   5.418   6.204
25012SOL    HW277044   6.323   5.286   6.168
25013SOL     OW77045   7.026   3.999   6.697
25013SOL    HW177046   7.046   3.910   6.727
25013SOL    HW277047   6.969   4.033   6.769
25014SOL     OW77048   6.594   3.739   6.732
25014SOL    HW177049   6.537   3.666   6.704
25014SOL    HW277050   6.683   3.697   6.727
25015SOL     OW77051   6.410   5.034   5.900
25015SOL    HW177052   6.358   5.016   5.979
25015SOL    HW277053   6.499   5.054   5.933
25016SOL     OW77054   6.187   5.285   6.865
25016SOL    HW177055   6.194   5.371   6.911
25016SOL    HW277056   6.277   5.276   6.829
25017SOL     OW77057   6.920   3.740   5.780
25017SOL    HW177058   6.906   3.760   5.687
25017SOL    HW277059   6.833   3.699   5.802
25018SOL     OW77060   6.900   4.200   6.275
25018SOL    HW177061   6.833   4.269   6.259
25018SOL    HW277062   6.867   4.161   6.358
25019SOL     OW77063   7.196   3.911   6.441
25019SOL    HW177064   7.107   3.924   6.476
25019SOL    HW277065   7.206   3.988   6.384
25020SOL     OW77066   6.467   5.351   5.906
25020SOL    HW177067   6.390   5.363   5.850
25020SOL    HW277068   6.506   5.440   5.917
25021SOL     OW77069   5.820   4.355   7.581
25021SOL    HW177070   5.725   4.349   7.596
25021SOL    HW277071   5.831   4.338   7.486
25022SOL     OW77072   5.828   3.998   8.445
25022SOL    HW177073   5.844   3.980   8.540
25022SOL    HW277074   5.742   3.954   8.431
25023SOL     OW77075   6.158   5.020   8.650
25023SOL    HW177076   6.074   5.014   8.603
25023SOL    HW277077   6.164   5.116   8.670
25024SOL     OW77078   7.133   5.255   8.168
25024SOL    HW177079   7.097   5.225   8.253
25024SOL    HW277080   7.057   5.247   8.106
25025SOL     OW77081   6.704   4.407   8.153
25025SOL    HW177082   6.743   4.494   8.131
25025SOL    HW277083   6.667   4.424   8.241
25026SOL     OW77084   7.355   4.333   7.686
25026SOL    HW177085   7.338   4.329   7.590
25026SOL    HW277086   7.303   4.257   7.718
25027SOL     OW77087   6.341   4.893   8.497
25027SOL    HW177088   6.272   4.936   8.551
25027SOL    HW277089   6.372   4.969   8.443
25028SOL     OW77090   6.467   4.471   9.246
25028SOL    HW177091   6.442   4.535   9.314
25028SOL    HW277092   6.491   4.528   9.170
25029SOL     OW77093   6.280   4.743   8.106
25029SOL    HW177094   6.345   4.728   8.176
25029SOL    HW277095   6.210   4.793   8.152
25030SOL     OW77096   6.276   4.877   9.253
25030SOL    HW177097   6.318   4.962   9.278
25030SOL    HW277098   6.189   4.905   9.220
25031SOL     OW77099   5.897   5.155   8.519
25031SOL    HW177100   5.831   5.110   8.464
25031SOL    HW277101   5.952   5.204   8.454
25032SOL     OW77102   7.057   5.226   8.826
25032SOL    HW177103   7.110   5.308   8.838
25032SOL    HW277104   6.987   5.237   8.893
25033SOL     OW77105   6.022   4.135   8.956
25033SOL    HW177106   6.102   4.080   8.958
25033SOL    HW277107   5.950   4.069   8.949
25034SOL     OW77108   7.209   4.174   8.196
25034SOL    HW177109   7.149   4.208   8.128
25034SOL    HW277110   7.187   4.229   8.271
25035SOL     OW77111   5.814   5.431   7.947
25035SOL    HW177112   5.844   5.518   7.980
25035SOL    HW277113   5.847   5.432   7.856
25036SOL     OW77114   6.707   5.073   9.121
25036SOL    HW177115   6.753   5.067   9.205
25036SOL    HW277116   6.661   4.987   9.118
25037SOL     OW77117   5.847   5.162   7.982
25037SOL    HW177118   5.837   5.260   7.982
25037SOL    HW277119   5.771   5.134   8.035
25038SOL     OW77120   5.855   4.800   8.345
25038SOL    HW177121   5.862   4.726   8.407
25038SOL    HW277122   5.801   4.863   8.395
25039SOL     OW77123   6.185   5.521   8.851
25039SOL    HW177124   6.121   5.492   8.918
25039SOL    HW277125   6.210   5.610   8.883
25040SOL     OW77126   6.166   4.707   7.566
25040SOL    HW177127   6.210   4.760   7.496
25040SOL    HW277128   6.203   4.748   7.646
25041SOL     OW77129   7.194   3.830   8.942
25041SOL    HW177130   7.187   3.909   8.887
25041SOL    HW277131   7.200   3.869   9.030
25042SOL     OW77132   5.712   4.385   8.019
25042SOL    HW177133   5.662   4.304   8.032
25042SOL    HW277134   5.702   4.432   8.105
25043SOL     OW77135   7.432   5.458   7.797
25043SOL    HW177136   7.509   5.442   7.856
25043SOL    HW277137   7.446   5.551   7.773
25044SOL     OW77138   5.653   5.309   7.598
25044SOL    HW177139   5.610   5.223   7.612
25044SOL    HW277140   5.614   5.366   7.668
25045SOL     OW77141   7.273   4.627   8.070
25045SOL    HW177142   7.338   4.588   8.009
25045SOL    HW277143   7.229   4.691   8.012
25046SOL     OW77144   7.225   4.845   7.889
25046SOL    HW177145   7.315   4.842   7.854
25046SOL    HW277146   7.233   4.914   7.957
25047SOL     OW77147   5.710   4.473   9.032
25047SOL    HW177148   5.805   4.491   9.036
25047SOL    HW277149   5.675   4.554   9.074
25048SOL     OW77150   6.182   5.134   8.213
25048SOL    HW177151   6.143   5.045   8.224
25048SOL    HW277152   6.176   5.144   8.116
25049SOL     OW77153   6.872   4.950   8.872
25049SOL    HW177154   6.906   4.879   8.815
25049SOL    HW277155   6.927   4.939   8.952
25050SOL     OW77156   6.415   3.726   7.947
25050SOL    HW177157   6.447   3.818   7.941
25050SOL    HW277158   6.318   3.739   7.946
25051SOL     OW77159   5.754   4.700   8.692
25051SOL    HW177160   5.846   4.670   8.684
25051SOL    HW277161   5.704   4.625   8.658
25052SOL     OW77162   7.134   4.686   7.631
25052SOL    HW177163   7.054   4.639   7.661
25052SOL    HW277164   7.166   4.725   7.713
25053SOL     OW77165   6.757   5.523   9.069
25053SOL    HW177166   6.774   5.589   8.999
25053SOL    HW277167   6.785   5.441   9.026
25054SOL     OW77168   5.924   3.959   9.236
25054SOL    HW177169   5.990   4.024   9.263
25054SOL    HW277170   5.844   3.997   9.276
25055SOL     OW77171   7.057   5.149   8.409
25055SOL    HW177172   6.995   5.164   8.483
25055SOL    HW277173   7.027   5.061   8.378
25056SOL     OW77174   7.250   5.458   8.048
25056SOL    HW177175   7.234   5.421   7.960
25056SOL    HW277176   7.218   5.385   8.105
25057SOL     OW77177   6.174   4.447   7.699
25057SOL    HW177178   6.187   4.529   7.648
25057SOL    HW277179   6.101   4.471   7.758
25058SOL     OW77180   6.867   4.054   8.359
25058SOL    HW177181   6.778   4.024   8.383
25058SOL    HW277182   6.921   4.018   8.432
25059SOL     OW77183   7.167   5.363   7.755
25059SOL    HW177184   7.260   5.388   7.765
25059SOL    HW277185   7.160   5.356   7.658
25060SOL     OW77186   6.378   4.360   8.898
25060SOL    HW177187   6.366   4.323   8.988
25060SOL    HW277188   6.331   4.294   8.844
25061SOL     OW77189   6.981   4.204   9.125
25061SOL    HW177190   6.990   4.260   9.205
25061SOL    HW277191   7.039   4.129   9.147
25062SOL     OW77192   6.544   4.610   9.027
25062SOL    HW177193   6.583   4.530   8.986
25062SOL    HW277194   6.503   4.654   8.949
25063SOL     OW77195   6.567   4.126   8.675
25063SOL    HW177196   6.476   4.150   8.694
25063SOL    HW277197   6.560   4.070   8.598
25064SOL     OW77198   6.629   4.398   7.863
25064SOL    HW177199   6.647   4.420   7.956
25064SOL    HW277200   6.542   4.355   7.869
25065SOL     OW77201   5.687   4.528   8.244
25065SOL    HW177202   5.762   4.536   8.306
25065SOL    HW277203   5.633   4.604   8.267
25066SOL     OW77204   5.672   5.504   9.013
25066SOL    HW177205   5.691   5.506   9.109
25066SOL    HW277206   5.605   5.573   9.006
25067SOL     OW77207   6.456   4.092   7.666
25067SOL    HW177208   6.491   4.145   7.592
25067SOL    HW277209   6.466   4.003   7.630
25068SOL     OW77210   7.300   4.299   9.288
25068SOL    HW177211   7.264   4.379   9.244
25068SOL    HW277212   7.328   4.247   9.211
25069SOL     OW77213   6.944   4.870   8.013
25069SOL    HW177214   7.025   4.866   7.961
25069SOL    HW277215   6.891   4.932   7.960
25070SOL     OW77216   6.141   3.944   8.347
25070SOL    HW177217   6.148   3.942   8.445
25070SOL    HW277218   6.146   4.039   8.327
25071SOL     OW77219   6.575   5.168   7.942
25071SOL    HW177220   6.533   5.227   7.875
25071SOL    HW277221   6.576   5.223   8.022
25072SOL     OW77222   5.927   5.546   8.305
25072SOL    HW177223   5.980   5.465   8.319
25072SOL    HW277224   5.994   5.616   8.315
25073SOL     OW77225   7.404   4.770   8.324
25073SOL    HW177226   7.352   4.756   8.244
25073SOL    HW277227   7.339   4.761   8.394
25074SOL     OW77228   6.814   5.276   8.953
25074SOL    HW177229   6.784   5.215   9.023
25074SOL    HW277230   6.770   5.238   8.875
25075SOL     OW77231   5.902   4.659   7.697
25075SOL    HW177232   5.969   4.702   7.641
25075SOL    HW277233   5.877   4.583   7.643
25076SOL     OW77234   7.054   4.485   8.172
25076SOL    HW177235   7.058   4.449   8.262
25076SOL    HW277236   7.138   4.534   8.166
25077SOL     OW77237   6.044   4.995   9.169
25077SOL    HW177238   5.999   5.001   9.082
25077SOL    HW277239   5.968   5.000   9.230
25078SOL     OW77240   6.673   5.498   7.689
25078SOL    HW177241   6.604   5.445   7.733
25078SOL    HW277242   6.691   5.447   7.608
25079SOL     OW77243   5.756   4.013   8.954
25079SOL    HW177244   5.683   4.062   8.994
25079SOL    HW277245   5.757   3.932   9.006
25080SOL     OW77246   7.212   5.088   7.544
25080SOL    HW177247   7.179   5.173   7.511
25080SOL    HW277248   7.150   5.023   7.506
25081SOL     OW77249   6.034   5.462   7.762
25081SOL    HW177250   6.088   5.507   7.829
25081SOL    HW277251   6.101   5.426   7.702
25082SOL     OW77252   6.976   3.856   7.897
25082SOL    HW177253   6.969   3.811   7.811
25082SOL    HW277254   7.073   3.863   7.909
25083SOL     OW77255   5.826   5.498   8.684
25083SOL    HW177256   5.909   5.455   8.709
25083SOL    HW277257   5.828   5.493   8.587
25084SOL     OW77258   6.540   5.429   8.334
25084SOL    HW177259   6.620   5.377   8.351
25084SOL    HW277260   6.498   5.377   8.263
25085SOL     OW77261   5.976   4.412   7.918
25085SOL    HW177262   5.982   4.315   7.918
25085SOL    HW277263   5.881   4.423   7.939
25086SOL     OW77264   7.124   3.980   9.176
25086SOL    HW177265   7.124   3.983   9.275
25086SOL    HW277266   7.062   3.908   9.160
25087SOL     OW77267   6.222   3.852   7.540
25087SOL    HW177268   6.290   3.787   7.561
25087SOL    HW277269   6.164   3.801   7.478
25088SOL     OW77270   6.362   3.984   9.183
25088SOL    HW177271   6.442   3.927   9.194
25088SOL    HW277272   6.311   3.964   9.263
25089SOL     OW77273   6.471   5.275   8.641
25089SOL    HW177274   6.461   5.244   8.549
25089SOL    HW277275   6.519   5.201   8.683
25090SOL     OW77276   6.916   4.323   8.881
25090SOL    HW177277   6.951   4.289   8.966
25090SOL    HW277278   6.974   4.400   8.863
25091SOL     OW77279   6.413   5.135   8.384
25091SOL    HW177280   6.498   5.120   8.338
25091SOL    HW277281   6.351   5.142   8.310
25092SOL     OW77282   6.527   4.246   8.360
25092SOL    HW177283   6.497   4.236   8.267
25092SOL    HW277284   6.556   4.156   8.380
25093SOL     OW77285   6.144   3.778   7.950
25093SOL    HW177286   6.066   3.784   8.008
25093SOL    HW277287   6.129   3.855   7.891
25094SOL     OW77288   7.029   4.900   7.477
25094SOL    HW177289   7.054   4.825   7.534
25094SOL    HW277290   6.941   4.926   7.508
25095SOL     OW77291   5.862   3.766   7.644
25095SOL    HW177292   5.910   3.836   7.596
25095SOL    HW277293   5.935   3.714   7.682
25096SOL     OW77294   6.509   3.981   7.937
25096SOL    HW177295   6.493   4.028   7.854
25096SOL    HW277296   6.606   3.992   7.946
25097SOL     OW77297   6.669   4.403   8.917
25097SOL    HW177298   6.620   4.319   8.918
25097SOL    HW277299   6.762   4.374   8.909
25098SOL     OW77300   6.827   5.301   8.231
25098SOL    HW177301   6.826   5.364   8.156
25098SOL    HW277302   6.900   5.334   8.284
25099SOL     OW77303   6.066   4.889   8.191
25099SOL    HW177304   5.991   4.853   8.242
25099SOL    HW277305   6.035   4.874   8.099
25100SOL     OW77306   6.847   5.528   8.041
25100SOL    HW177307   6.898   5.595   7.989
25100SOL    HW277308   6.801   5.584   8.104
25101SOL     OW77309   6.639   4.267   7.463
25101SOL    HW177310   6.591   4.349   7.443
25101SOL    HW277311   6.711   4.296   7.521
25102SOL     OW77312   5.640   4.286   8.849
25102SOL    HW177313   5.735   4.275   8.828
25102SOL    HW277314   5.643   4.364   8.909
25103SOL     OW77315   6.157   3.950   8.618
25103SOL    HW177316   6.200   3.880   8.669
25103SOL    HW277317   6.065   3.945   8.650
25104SOL     OW77318   6.452   4.191   8.115
25104SOL    HW177319   6.417   4.241   8.040
25104SOL    HW277320   6.469   4.104   8.075
25105SOL     OW77321   6.614   3.784   8.219
25105SOL    HW177322   6.563   3.767   8.139
25105SOL    HW277323   6.594   3.706   8.274
25106SOL     OW77324   7.001   4.901   8.331
25106SOL    HW177325   6.941   4.830   8.360
25106SOL    HW277326   6.995   4.893   8.235
25107SOL     OW77327   7.067   4.308   8.428
25107SOL    HW177328   7.011   4.230   8.438
25107SOL    HW277329   7.128   4.302   8.503
25108SOL     OW77330   7.429   4.544   7.847
25108SOL    HW177331   7.484   4.487   7.904
25108SOL    HW277332   7.414   4.484   7.772
25109SOL     OW77333   6.081   5.141   7.585
25109SOL    HW177334   5.995   5.125   7.628
25109SOL    HW277335   6.072   5.093   7.502
25110SOL     OW77336   7.253   5.015   8.105
25110SOL    HW177337   7.350   5.022   8.110
25110SOL    HW277338   7.222   5.103   8.133
25111SOL     OW77339   6.997   4.321   7.516
25111SOL    HW177340   6.946   4.288   7.593
25111SOL    HW277341   7.086   4.288   7.535
25112SOL     OW77342   6.105   3.964   7.766
25112SOL    HW177343   6.152   3.930   7.687
25112SOL    HW277344   6.074   4.051   7.730
25113SOL     OW77345   7.320   4.950   9.026
25113SOL    HW177346   7.410   4.913   9.034
25113SOL    HW277347   7.338   5.044   9.038
25114SOL     OW77348   6.663   5.090   8.787
25114SOL    HW177349   6.585   5.051   8.829
25114SOL    HW277350   6.735   5.036   8.826
25115SOL     OW77351   7.190   5.336   9.083
25115SOL    HW177352   7.196   5.378   8.996
25115SOL    HW277353   7.272   5.283   9.085
25116SOL     OW77354   6.699   4.953   8.538
25116SOL    HW177355   6.632   4.981   8.601
25116SOL    HW277356   6.676   5.002   8.458
25117SOL     OW77357   7.182   4.815   8.529
25117SOL    HW177358   7.190   4.881   8.600
25117SOL    HW277359   7.134   4.867   8.462
25118SOL     OW77360   6.499   3.829   8.842
25118SOL    HW177361   6.530   3.800   8.754
25118SOL    HW277362   6.580   3.870   8.878
25119SOL     OW77363   6.568   4.838   9.187
25119SOL    HW177364   6.476   4.866   9.202
25119SOL    HW277365   6.560   4.763   9.126
25120SOL     OW77366   6.296   4.790   7.801
25120SOL    HW177367   6.283   4.767   7.894
25120SOL    HW277368   6.366   4.727   7.775
25121SOL     OW77369   6.005   4.538   8.710
25121SOL    HW177370   6.077   4.542   8.776
25121SOL    HW277371   5.968   4.449   8.724
25122SOL     OW77372   6.870   4.112   8.713
25122SOL    HW177373   6.887   4.190   8.769
25122SOL    HW277374   6.777   4.126   8.687
25123SOL     OW77375   5.960   4.832   7.950
25123SOL    HW177376   5.963   4.896   7.878
25123SOL    HW277377   5.947   4.749   7.903
25124SOL     OW77378   6.120   4.269   8.288
25124SOL    HW177379   6.147   4.333   8.218
25124SOL    HW277380   6.186   4.288   8.357
25125SOL     OW77381   6.810   5.058   7.837
25125SOL    HW177382   6.854   5.135   7.876
25125SOL    HW277383   6.718   5.072   7.868
25126SOL     OW77384   6.888   5.194   8.618
25126SOL    HW177385   6.947   5.189   8.695
25126SOL    HW277386   6.815   5.135   8.642
25127SOL     OW77387   7.175   4.333   7.933
25127SOL    HW177388   7.121   4.393   7.986
25127SOL    HW277389   7.205   4.392   7.862
25128SOL     OW77390   5.917   5.238   8.766
25128SOL    HW177391   5.913   5.202   8.675
25128SOL    HW277392   6.012   5.256   8.772
25129SOL     OW77393   6.018   4.455   9.063
25129SOL    HW177394   6.077   4.501   9.001
25129SOL    HW277395   6.055   4.365   9.061
25130SOL     OW77396   7.213   4.503   9.136
25130SOL    HW177397   7.123   4.541   9.133
25130SOL    HW277398   7.253   4.543   9.056
25131SOL     OW77399   6.581   3.835   9.203
25131SOL    HW177400   6.644   3.906   9.189
25131SOL    HW277401   6.629   3.761   9.163
25132SOL     OW77402   6.086   3.736   9.205
25132SOL    HW177403   6.044   3.681   9.136
25132SOL    HW277404   6.025   3.812   9.208
25133SOL     OW77405   6.150   4.625   8.487
25133SOL    HW177406   6.199   4.707   8.495
25133SOL    HW277407   6.110   4.614   8.574
25134SOL     OW77408   6.947   4.581   8.467
25134SOL    HW177409   6.863   4.549   8.431
25134SOL    HW277410   6.996   4.498   8.478
25135SOL     OW77411   6.814   4.241   7.714
25135SOL    HW177412   6.812   4.166   7.775
25135SOL    HW277413   6.752   4.302   7.758
25136SOL     OW77414   5.886   3.932   8.700
25136SOL    HW177415   5.838   3.960   8.780
25136SOL    HW277416   5.862   3.837   8.696
25137SOL     OW77417   5.673   5.062   8.752
25137SOL    HW177418   5.650   4.990   8.815
25137SOL    HW277419   5.748   5.022   8.706
25138SOL     OW77420   6.294   4.358   8.482
25138SOL    HW177421   6.382   4.338   8.444
25138SOL    HW277422   6.282   4.454   8.466
25139SOL     OW77423   7.345   4.676   9.304
25139SOL    HW177424   7.309   4.620   9.233
25139SOL    HW277425   7.272   4.675   9.368
25140SOL     OW77426   5.887   3.786   8.058
25140SOL    HW177427   5.851   3.873   8.082
25140SOL    HW277428   5.895   3.743   8.145
25141SOL     OW77429   7.180   4.104   7.794
25141SOL    HW177430   7.215   4.033   7.850
25141SOL    HW277431   7.175   4.180   7.856
25142SOL     OW77432   6.641   4.481   8.418
25142SOL    HW177433   6.625   4.498   8.512
25142SOL    HW277434   6.611   4.388   8.409
25143SOL     OW77435   6.560   5.291   9.150
25143SOL    HW177436   6.551   5.339   9.065
25143SOL    HW277437   6.598   5.205   9.122
25144SOL     OW77438   7.431   5.214   9.052
25144SOL    HW177439   7.457   5.242   8.962
25144SOL    HW277440   7.507   5.243   9.105
25145SOL     OW77441   5.933   4.622   9.245
25145SOL    HW177442   6.017   4.641   9.290
25145SOL    HW277443   5.958   4.546   9.188
25146SOL     OW77444   7.086   3.973   7.575
25146SOL    HW177445   7.019   3.912   7.610
25146SOL    HW277446   7.122   4.016   7.655
25147SOL     OW77447   6.884   4.566   7.481
25147SOL    HW177448   6.933   4.482   7.490
25147SOL    HW277449   6.909   4.592   7.390
25148SOL     OW77450   6.657   5.088   8.291
25148SOL    HW177451   6.667   5.010   8.233
25148SOL    HW277452   6.726   5.149   8.260
25149SOL     OW77453   5.873   4.538   8.448
25149SOL    HW177454   5.969   4.553   8.439
25149SOL    HW277455   5.872   4.444   8.469
25150SOL     OW77456   5.905   4.260   8.447
25150SOL    HW177457   5.884   4.165   8.435
25150SOL    HW277458   5.975   4.272   8.379
25151SOL     OW77459   6.735   4.100   9.139
25151SOL    HW177460   6.690   4.149   9.210
25151SOL    HW277461   6.824   4.141   9.140
25152SOL     OW77462   6.752   3.923   8.935
25152SOL    HW177463   6.750   3.988   9.008
25152SOL    HW277464   6.796   3.973   8.865
25153SOL     OW77465   5.583   5.041   7.630
25153SOL    HW177466   5.493   5.056   7.592
25153SOL    HW277467   5.570   4.957   7.677
25154SOL     OW77468   5.683   5.512   8.397
25154SOL    HW177469   5.653   5.433   8.347
25154SOL    HW277470   5.771   5.529   8.356
25155SOL     OW77471   6.068   5.308   8.377
25155SOL    HW177472   6.138   5.375   8.391
25155SOL    HW277473   6.111   5.247   8.314
25156SOL     OW77474   6.557   4.494   8.681
25156SOL    HW177475   6.609   4.465   8.758
25156SOL    HW277476   6.468   4.470   8.709
25157SOL     OW77477   5.623   4.238   8.560
25157SOL    HW177478   5.708   4.236   8.514
25157SOL    HW277479   5.649   4.261   8.649
25158SOL     OW77480   5.802   4.240   9.156
25158SOL    HW177481   5.863   4.200   9.092
25158SOL    HW277482   5.762   4.312   9.105
25159SOL     OW77483   6.972   4.641   9.102
25159SOL    HW177484   6.999   4.735   9.104
25159SOL    HW277485   6.967   4.623   9.007
25160SOL     OW77486   6.372   4.285   7.858
25160SOL    HW177487   6.394   4.223   7.786
25160SOL    HW277488   6.303   4.340   7.818
25161SOL     OW77489   7.225   4.348   8.665
25161SOL    HW177490   7.197   4.276   8.722
25161SOL    HW277491   7.307   4.312   8.626
25162SOL     OW77492   5.835   5.264   9.169
25162SOL    HW177493   5.824   5.329   9.240
25162SOL    HW277494   5.844   5.181   9.220
25163SOL     OW77495   6.255   4.206   8.711
25163SOL    HW177496   6.217   4.124   8.673
25163SOL    HW277497   6.259   4.266   8.634
25164SOL     OW77498   6.500   5.414   8.914
25164SOL    HW177499   6.501   5.384   8.821
25164SOL    HW277500   6.500   5.511   8.906
25165SOL     OW77501   6.034   4.200   7.658
25165SOL    HW177502   6.098   4.272   7.649
25165SOL    HW277503   5.951   4.246   7.639
25166SOL     OW77504   5.700   4.846   8.914
25166SOL    HW177505   5.711   4.795   8.997
25166SOL    HW277506   5.715   4.778   8.844
25167SOL     OW77507   6.907   4.755   8.684
25167SOL    HW177508   6.927   4.705   8.602
25167SOL    HW277509   6.839   4.816   8.652
25168SOL     OW77510   6.905   4.574   7.749
25168SOL    HW177511   6.821   4.550   7.789
25168SOL    HW277512   6.883   4.576   7.653
25169SOL     OW77513   7.344   5.474   8.579
25169SOL    HW177514   7.419   5.493   8.520
25169SOL    HW277515   7.331   5.378   8.561
25170SOL     OW77516   6.827   5.450   8.558
25170SOL    HW177517   6.911   5.477   8.520
25170SOL    HW277518   6.841   5.355   8.574
25171SOL     OW77519   5.679   4.986   8.470
25171SOL    HW177520   5.631   5.003   8.552
25171SOL    HW277521   5.614   4.930   8.421
25172SOL     OW77522   6.280   5.361   9.185
25172SOL    HW177523   6.250   5.453   9.176
25172SOL    HW277524   6.372   5.366   9.156
25173SOL     OW77525   7.261   3.864   7.941
25173SOL    HW177526   7.334   3.849   7.880
25173SOL    HW277527   7.262   3.782   7.995
25174SOL     OW77528   6.954   5.298   7.929
25174SOL    HW177529   7.009   5.315   7.851
25174SOL    HW277530   6.914   5.385   7.947
25175SOL     OW77531   5.734   5.513   9.280
25175SOL    HW177532   5.696   5.443   9.338
25175SOL    HW277533   5.773   5.571   9.348
25176SOL     OW77534   6.835   4.639   8.111
25176SOL    HW177535   6.916   4.589   8.129
25176SOL    HW277536   6.871   4.720   8.068
25177SOL     OW77537   6.389   4.993   8.864
25177SOL    HW177538   6.363   5.041   8.946
25177SOL    HW277539   6.307   5.001   8.812
25178SOL     OW77540   6.254   5.340   7.603
25178SOL    HW177541   6.270   5.349   7.507
25178SOL    HW277542   6.192   5.263   7.604
25179SOL     OW77543   7.206   5.447   8.833
25179SOL    HW177544   7.254   5.458   8.750
25179SOL    HW277545   7.201   5.538   8.868
25180SOL     OW77546   7.424   3.887   8.423
25180SOL    HW177547   7.447   3.801   8.385
25180SOL    HW277548   7.335   3.906   8.385
25181SOL     OW77549   5.776   4.057   8.167
25181SOL    HW177550   5.839   4.107   8.113
25181SOL    HW277551   5.824   4.045   8.250
25182SOL     OW77552   6.766   5.353   7.474
25182SOL    HW177553   6.776   5.257   7.485
25182SOL    HW277554   6.715   5.361   7.391
25183SOL     OW77555   6.410   4.729   8.823
25183SOL    HW177556   6.448   4.722   8.735
25183SOL    HW277557   6.408   4.826   8.837
25184SOL     OW77558   6.491   4.632   7.727
25184SOL    HW177559   6.563   4.672   7.674
25184SOL    HW277560   6.532   4.553   7.763
25185SOL     OW77561   7.140   5.351   7.478
25185SOL    HW177562   7.044   5.358   7.474
25185SOL    HW277563   7.165   5.353   7.383
25186SOL     OW77564   5.919   5.005   8.934
25186SOL    HW177565   5.906   5.078   8.871
25186SOL    HW277566   5.841   4.949   8.921
25187SOL     OW77567   7.190   5.032   8.711
25187SOL    HW177568   7.240   5.006   8.789
25187SOL    HW277569   7.133   5.103   8.747
25188SOL     OW77570   6.636   4.839   8.169
25188SOL    HW177571   6.562   4.791   8.210
25188SOL    HW277572   6.695   4.767   8.144
25189SOL     OW77573   6.619   3.953   8.438
25189SOL    HW177574   6.607   3.909   8.351
25189SOL    HW277575   6.617   3.876   8.498
25190SOL     OW77576   6.199   5.203   7.951
25190SOL    HW177577   6.247   5.163   7.877
25190SOL    HW277578   6.121   5.241   7.908
25191SOL     OW77579   7.294   4.096   8.828
25191SOL    HW177580   7.359   4.169   8.825
25191SOL    HW277581   7.339   4.027   8.774
25192SOL     OW77582   5.832   5.092   7.719
25192SOL    HW177583   5.736   5.084   7.708
25192SOL    HW277584   5.840   5.122   7.812
25193SOL     OW77585   5.713   4.742   9.157
25193SOL    HW177586   5.641   4.730   9.222
25193SOL    HW277587   5.791   4.705   9.204
25194SOL     OW77588   6.258   3.909   8.935
25194SOL    HW177589   6.344   3.882   8.899
25194SOL    HW277590   6.283   3.940   9.024
25195SOL     OW77591   5.680   4.080   7.476
25195SOL    HW177592   5.594   4.075   7.430
25195SOL    HW277593   5.722   4.151   7.424
25196SOL     OW77594   7.040   4.578   8.835
25196SOL    HW177595   6.989   4.638   8.777
25196SOL    HW277596   7.131   4.603   8.813
25197SOL     OW77597   5.634   3.894   7.740
25197SOL    HW177598   5.623   3.977   7.693
25197SOL    HW277599   5.717   3.860   7.701
25198SOL     OW77600   6.791   5.074   7.558
25198SOL    HW177601   6.704   5.032   7.560
25198SOL    HW277602   6.813   5.079   7.653
25199SOL     OW77603   6.203   4.553   8.882
25199SOL    HW177604   6.263   4.630   8.884
25199SOL    HW277605   6.269   4.481   8.885
25200SOL     OW77606   7.091   5.503   8.410
25200SOL    HW177607   7.126   5.543   8.329
25200SOL    HW277608   7.171   5.479   8.458
25201SOL     OW77609   6.310   4.258   9.132
25201SOL    HW177610   6.351   4.317   9.197
25201SOL    HW277611   6.332   4.169   9.163
25202SOL     OW77612   7.050   4.905   9.078
25202SOL    HW177613   7.042   4.909   9.175
25202SOL    HW277614   7.143   4.927   9.064
25203SOL     OW77615   5.960   5.456   9.009
25203SOL    HW177616   5.871   5.492   9.004
25203SOL    HW277617   5.944   5.372   9.054
25204SOL     OW77618   7.284   4.614   8.689
25204SOL    HW177619   7.255   4.524   8.663
25204SOL    HW277620   7.241   4.671   8.623
25205SOL     OW77621   6.779   4.045   7.930
25205SOL    HW177622   6.849   3.978   7.916
25205SOL    HW277623   6.821   4.102   7.997
25206SOL     OW77624   6.196   4.458   8.102
25206SOL    HW177625   6.236   4.547   8.095
25206SOL    HW277626   6.126   4.462   8.035
25207SOL     OW77627   7.352   4.099   9.087
25207SOL    HW177628   7.322   4.106   8.994
25207SOL    HW277629   7.276   4.053   9.127
25208SOL     OW77630   7.330   4.662   8.949
25208SOL    HW177631   7.324   4.759   8.952
25208SOL    HW277632   7.332   4.644   8.853
25209SOL     OW77633   6.451   5.085   7.478
25209SOL    HW177634   6.424   5.109   7.567
25209SOL    HW277635   6.466   5.170   7.433
25210SOL     OW77636   6.228   5.525   8.368
25210SOL    HW177637   6.215   5.618   8.342
25210SOL    HW277638   6.323   5.519   8.380
25211SOL     OW77639   6.465   4.670   8.301
25211SOL    HW177640   6.518   4.598   8.339
25211SOL    HW277641   6.443   4.724   8.378
25212SOL     OW77642   6.676   4.729   7.554
25212SOL    HW177643   6.640   4.776   7.477
25212SOL    HW277644   6.740   4.670   7.511
25213SOL     OW77645   7.453   5.287   8.278
25213SOL    HW177646   7.361   5.282   8.250
25213SOL    HW277647   7.461   5.214   8.341
25214SOL     OW77648   5.826   5.039   9.316
25214SOL    HW177649   5.755   4.979   9.288
25214SOL    HW277650   5.806   5.048   9.410
25215SOL     OW77651   5.684   4.969   8.099
25215SOL    HW177652   5.674   4.894   8.158
25215SOL    HW277653   5.767   4.947   8.053
25216SOL     OW77654   6.260   5.119   9.064
25216SOL    HW177655   6.187   5.067   9.100
25216SOL    HW277656   6.251   5.203   9.112
25217SOL     OW77657   7.404   3.893   8.684
25217SOL    HW177658   7.412   3.797   8.692
25217SOL    HW277659   7.412   3.904   8.587
25218SOL     OW77660   5.991   4.123   7.992
25218SOL    HW177661   6.032   4.089   7.911
25218SOL    HW277662   6.062   4.117   8.056
25219SOL     OW77663   7.302   5.216   8.532
25219SOL    HW177664   7.219   5.188   8.490
25219SOL    HW277665   7.304   5.155   8.607
25220SOL     OW77666   5.903   4.264   8.736
25220SOL    HW177667   5.968   4.223   8.796
25220SOL    HW277668   5.929   4.229   8.649
25221SOL     OW77669   6.406   5.321   8.124
25221SOL    HW177670   6.400   5.346   8.030
25221SOL    HW277671   6.323   5.271   8.135
25222SOL     OW77672   7.021   3.968   8.553
25222SOL    HW177673   7.058   3.891   8.598
25222SOL    HW277674   6.972   4.014   8.625
25223SOL     OW77675   6.600   3.725   8.601
25223SOL    HW177676   6.548   3.648   8.576
25223SOL    HW277677   6.691   3.687   8.597
25224SOL     OW77678   6.378   5.059   7.759
25224SOL    HW177679   6.341   4.969   7.756
25224SOL    HW277680   6.449   5.049   7.824
25225SOL     OW77681   6.184   5.288   8.713
25225SOL    HW177682   6.186   5.371   8.764
25225SOL    HW277683   6.278   5.281   8.691
25226SOL     OW77684   6.901   3.758   7.639
25226SOL    HW177685   6.909   3.702   7.561
25226SOL    HW277686   6.815   3.724   7.675
25227SOL     OW77687   6.886   4.202   8.129
25227SOL    HW177688   6.821   4.275   8.130
25227SOL    HW277689   6.868   4.157   8.214
25228SOL     OW77690   7.185   3.929   8.317
25228SOL    HW177691   7.104   3.939   8.368
25228SOL    HW277692   7.188   4.012   8.266
25229SOL     OW77693   5.614   4.803   7.788
25229SOL    HW177694   5.702   4.807   7.749
25229SOL    HW277695   5.597   4.707   7.789
25230SOL     OW77696   6.458   5.365   7.782
25230SOL    HW177697   6.386   5.354   7.717
25230SOL    HW277698   6.438   5.451   7.826
25231SOL     OW77699   5.817   4.367   9.438
25231SOL    HW177700   5.727   4.347   9.467
25231SOL    HW277701   5.819   4.342   9.344
25232SOL     OW77702   5.799   4.014  10.290
25232SOL    HW177703   5.825   3.987  10.380
25232SOL    HW277704   5.717   3.963  10.278
25233SOL     OW77705   5.589   4.122   9.922
25233SOL    HW177706   5.514   4.144   9.981
25233SOL    HW277707   5.557   4.039   9.883
25234SOL     OW77708   6.151   5.023  10.461
25234SOL    HW177709   6.057   5.016  10.440
25234SOL    HW277710   6.154   5.109  10.507
25235SOL     OW77711   7.141   5.248  10.027
25235SOL    HW177712   7.105   5.215  10.112
25235SOL    HW277713   7.067   5.241   9.966
25236SOL     OW77714   6.717   4.402  10.015
25236SOL    HW177715   6.751   4.491   9.993
25236SOL    HW277716   6.669   4.422  10.097
25237SOL     OW77717   7.351   4.332   9.547
25237SOL    HW177718   7.333   4.323   9.451
25237SOL    HW277719   7.302   4.257   9.584
25238SOL     OW77720   6.346   4.883  10.347
25238SOL    HW177721   6.274   4.930  10.393
25238SOL    HW277722   6.374   4.955  10.287
25239SOL     OW77723   6.477   4.487   0.035
25239SOL    HW177724   6.430   4.542   0.100
25239SOL    HW277725   6.527   4.556  11.088
25240SOL     OW77726   6.280   4.752   9.968
25240SOL    HW177727   6.338   4.730  10.042
25240SOL    HW277728   6.204   4.797  10.012
25241SOL     OW77729   5.901   5.159  10.385
25241SOL    HW177730   5.831   5.112  10.336
25241SOL    HW277731   5.954   5.201  10.315
25242SOL     OW77732   7.060   5.221  10.671
25242SOL    HW177733   7.115   5.302  10.678
25242SOL    HW277734   6.991   5.237  10.736
25243SOL     OW77735   6.054   4.121  10.802
25243SOL    HW177736   6.118   4.048  10.794
25243SOL    HW277737   5.970   4.076  10.815
25244SOL     OW77738   7.191   4.172  10.050
25244SOL    HW177739   7.118   4.195   9.991
25244SOL    HW277740   7.205   4.256  10.094
25245SOL     OW77741   5.818   5.444   9.799
25245SOL    HW177742   5.855   5.525   9.836
25245SOL    HW277743   5.869   5.433   9.717
25246SOL     OW77744   5.836   5.152   9.852
25246SOL    HW177745   5.829   5.249   9.861
25246SOL    HW277746   5.761   5.120   9.905
25247SOL     OW77747   5.854   4.809  10.195
25247SOL    HW177748   5.861   4.736  10.258
25247SOL    HW277749   5.799   4.873  10.244
25248SOL     OW77750   6.181   5.520  10.729
25248SOL    HW177751   6.109   5.498  10.791
25248SOL    HW277752   6.201   5.612  10.753
25249SOL     OW77753   6.154   4.714   9.431
25249SOL    HW177754   6.204   4.766   9.364
25249SOL    HW277755   6.194   4.748   9.513
25250SOL     OW77756   7.182   3.836  10.789
25250SOL    HW177757   7.187   3.922  10.745
25250SOL    HW277758   7.179   3.859  10.883
25251SOL     OW77759   5.702   4.372   9.873
25251SOL    HW177760   5.670   4.281   9.886
25251SOL    HW277761   5.694   4.411   9.963
25252SOL     OW77762   7.433   5.461   9.654
25252SOL    HW177763   7.505   5.448   9.720
25252SOL    HW277764   7.445   5.555   9.633
25253SOL     OW77765   5.650   5.320   9.437
25253SOL    HW177766   5.638   5.225   9.454
25253SOL    HW277767   5.615   5.361   9.517
25254SOL     OW77768   7.271   4.629   9.922
25254SOL    HW177769   7.349   4.600   9.873
25254SOL    HW277770   7.236   4.696   9.861
25255SOL     OW77771   7.229   4.841   9.757
25255SOL    HW177772   7.319   4.842   9.722
25255SOL    HW277773   7.235   4.908   9.829
25256SOL     OW77774   5.700   4.464  10.899
25256SOL    HW177775   5.784   4.499  10.930
25256SOL    HW277776   5.643   4.542  10.904
25257SOL     OW77777   6.178   5.131  10.070
25257SOL    HW177778   6.142   5.041  10.081
25257SOL    HW277779   6.170   5.142   9.974
25258SOL     OW77780   6.877   4.968  10.736
25258SOL    HW177781   6.903   4.902  10.669
25258SOL    HW277782   6.946   4.957  10.803
25259SOL     OW77783   6.417   3.723   9.805
25259SOL    HW177784   6.449   3.815   9.810
25259SOL    HW277785   6.321   3.735   9.818
25260SOL     OW77786   5.793   4.691  10.611
25260SOL    HW177787   5.879   4.658  10.579
25260SOL    HW277788   5.731   4.629  10.570
25261SOL     OW77789   7.129   4.671   9.482
25261SOL    HW177790   7.047   4.633   9.521
25261SOL    HW277791   7.168   4.714   9.560
25262SOL     OW77792   6.780   5.513  10.910
25262SOL    HW177793   6.772   5.580  10.841
25262SOL    HW277794   6.803   5.433  10.859
25263SOL     OW77795   5.939   3.951   0.008
25263SOL    HW177796   5.996   4.017   0.049
25263SOL    HW277797   5.856   4.002   0.001
25264SOL     OW77798   7.053   5.140  10.263
25264SOL    HW177799   6.991   5.163  10.335
25264SOL    HW277800   7.028   5.047  10.244
25265SOL     OW77801   7.247   5.457   9.899
25265SOL    HW177802   7.225   5.416   9.814
25265SOL    HW277803   7.220   5.387   9.961
25266SOL     OW77804   6.176   4.439   9.569
25266SOL    HW177805   6.183   4.527   9.529
25266SOL    HW277806   6.104   4.451   9.634
25267SOL     OW77807   6.865   4.089  10.259
25267SOL    HW177808   6.778   4.046  10.262
25267SOL    HW277809   6.919   4.032  10.318
25268SOL     OW77810   7.162   5.370   9.623
25268SOL    HW177811   7.256   5.394   9.623
25268SOL    HW277812   7.148   5.357   9.528
25269SOL     OW77813   6.425   4.341  10.777
25269SOL    HW177814   6.385   4.323  10.867
25269SOL    HW277815   6.367   4.287  10.720
25270SOL     OW77816   6.576   4.592  10.860
25270SOL    HW177817   6.527   4.512  10.841
25270SOL    HW277818   6.524   4.660  10.812
25271SOL     OW77819   6.559   4.145  10.562
25271SOL    HW177820   6.463   4.156  10.572
25271SOL    HW277821   6.564   4.092  10.481
25272SOL     OW77822   6.620   4.408   9.717
25272SOL    HW177823   6.635   4.425   9.812
25272SOL    HW277824   6.535   4.359   9.719
25273SOL     OW77825   5.696   4.532  10.107
25273SOL    HW177826   5.769   4.542  10.170
25273SOL    HW277827   5.651   4.617  10.114
25274SOL     OW77828   5.698   5.560  10.862
25274SOL    HW177829   5.697   5.515  10.948
25274SOL    HW277830   5.605   5.564  10.839
25275SOL     OW77831   6.464   4.085   9.528
25275SOL    HW177832   6.506   4.141   9.461
25275SOL    HW277833   6.469   3.999   9.487
25276SOL     OW77834   6.950   4.869   9.881
25276SOL    HW177835   7.025   4.862   9.819
25276SOL    HW277836   6.893   4.930   9.833
25277SOL     OW77837   6.140   3.915  10.204
25277SOL    HW177838   6.148   3.931  10.300
25277SOL    HW277839   6.130   4.005  10.169
25278SOL     OW77840   6.577   5.166   9.778
25278SOL    HW177841   6.529   5.229   9.721
25278SOL    HW277842   6.590   5.218   9.859
25279SOL     OW77843   5.934   5.536  10.157
25279SOL    HW177844   5.971   5.447  10.176
25279SOL    HW277845   6.005   5.594  10.188
25280SOL     OW77846   7.401   4.757  10.166
25280SOL    HW177847   7.340   4.748  10.092
25280SOL    HW277848   7.343   4.761  10.243
25281SOL     OW77849   6.826   5.282  10.793
25281SOL    HW177850   6.806   5.214  10.858
25281SOL    HW277851   6.761   5.261  10.724
25282SOL     OW77852   5.887   4.676   9.555
25282SOL    HW177853   5.967   4.695   9.505
25282SOL    HW277854   5.854   4.596   9.511
25283SOL     OW77855   7.074   4.468  10.018
25283SOL    HW177856   7.074   4.455  10.114
25283SOL    HW277857   7.152   4.526  10.003
25284SOL     OW77858   6.067   4.994  11.041
25284SOL    HW177859   6.034   5.006  10.949
25284SOL    HW277860   6.008   4.924  11.073
25285SOL     OW77861   6.675   5.496   9.547
25285SOL    HW177862   6.607   5.441   9.590
25285SOL    HW277863   6.698   5.442   9.470
25286SOL     OW77864   5.763   4.015  10.785
25286SOL    HW177865   5.698   4.081  10.811
25286SOL    HW277866   5.743   3.941  10.845
25287SOL     OW77867   7.212   5.087   9.406
25287SOL    HW177868   7.183   5.174   9.374
25287SOL    HW277869   7.145   5.025   9.370
25288SOL     OW77870   6.038   5.466   9.624
25288SOL    HW177871   6.091   5.511   9.691
25288SOL    HW277872   6.105   5.423   9.568
25289SOL     OW77873   6.977   3.843   9.742
25289SOL    HW177874   6.953   3.797   9.660
25289SOL    HW277875   7.073   3.841   9.739
25290SOL     OW77876   5.825   5.521  10.546
25290SOL    HW177877   5.880   5.463  10.600
25290SOL    HW277878   5.819   5.473  10.463
25291SOL     OW77879   6.542   5.431  10.182
25291SOL    HW177880   6.624   5.382  10.193
25291SOL    HW277881   6.496   5.377  10.114
25292SOL     OW77882   5.973   4.423   9.776
25292SOL    HW177883   5.999   4.329   9.791
25292SOL    HW277884   5.878   4.419   9.796
25293SOL     OW77885   6.218   3.856   9.400
25293SOL    HW177886   6.286   3.794   9.430
25293SOL    HW277887   6.168   3.802   9.336
25294SOL     OW77888   6.361   3.984  11.030
25294SOL    HW177889   6.439   3.943  11.069
25294SOL    HW277890   6.293   3.962  11.096
25295SOL     OW77891   6.476   5.272  10.501
25295SOL    HW177892   6.464   5.234  10.413
25295SOL    HW277893   6.545   5.215  10.540
25296SOL     OW77894   6.873   4.341  10.744
25296SOL    HW177895   6.951   4.312  10.793
25296SOL    HW277896   6.908   4.428  10.712
25297SOL     OW77897   6.396   5.136  10.249
25297SOL    HW177898   6.483   5.125  10.205
25297SOL    HW277899   6.334   5.139  10.174
25298SOL     OW77900   6.531   4.253  10.220
25298SOL    HW177901   6.500   4.249  10.127
25298SOL    HW277902   6.550   4.160  10.236
25299SOL     OW77903   6.147   3.779   9.815
25299SOL    HW177904   6.069   3.785   9.872
25299SOL    HW277905   6.135   3.858   9.758
25300SOL     OW77906   7.032   4.899   9.337
25300SOL    HW177907   7.057   4.819   9.388
25300SOL    HW277908   6.944   4.921   9.370
25301SOL     OW77909   5.869   3.758   9.500
25301SOL    HW177910   5.927   3.833   9.482
25301SOL    HW277911   5.933   3.696   9.541
25302SOL     OW77912   6.516   3.978   9.806
25302SOL    HW177913   6.493   4.020   9.722
25302SOL    HW277914   6.612   3.995   9.808
25303SOL     OW77915   6.802   5.307  10.119
25303SOL    HW177916   6.810   5.356  10.035
25303SOL    HW277917   6.883   5.333  10.165
25304SOL     OW77918   6.059   4.884  10.047
25304SOL    HW177919   5.985   4.853  10.103
25304SOL    HW277920   6.023   4.862   9.958
25305SOL     OW77921   6.837   5.530   9.920
25305SOL    HW177922   6.881   5.598   9.866
25305SOL    HW277923   6.790   5.583   9.986
25306SOL     OW77924   6.641   4.261   9.336
25306SOL    HW177925   6.592   4.342   9.313
25306SOL    HW277926   6.715   4.294   9.389
25307SOL     OW77927   5.658   4.281  10.707
25307SOL    HW177928   5.752   4.273  10.687
25307SOL    HW277929   5.657   4.360  10.765
25308SOL     OW77930   6.152   3.951  10.473
25308SOL    HW177931   6.192   3.876  10.520
25308SOL    HW277932   6.059   3.944  10.502
25309SOL     OW77933   6.447   4.193   9.976
25309SOL    HW177934   6.396   4.238   9.907
25309SOL    HW277935   6.466   4.107   9.934
25310SOL     OW77936   6.655   3.798  10.077
25310SOL    HW177937   6.604   3.796   9.995
25310SOL    HW277938   6.618   3.722  10.125
25311SOL     OW77939   7.006   4.883  10.198
25311SOL    HW177940   6.929   4.826  10.210
25311SOL    HW277941   7.009   4.891  10.101
25312SOL     OW77942   7.043   4.323  10.297
25312SOL    HW177943   7.004   4.235  10.296
25312SOL    HW277944   7.119   4.316  10.358
25313SOL     OW77945   7.422   4.544   9.704
25313SOL    HW177946   7.480   4.489   9.761
25313SOL    HW277947   7.402   4.481   9.632
25314SOL     OW77948   6.078   5.148   9.472
25314SOL    HW177949   5.994   5.136   9.520
25314SOL    HW277950   6.061   5.100   9.390
25315SOL     OW77951   7.267   5.010   9.963
25315SOL    HW177952   7.365   5.013   9.969
25315SOL    HW277953   7.239   5.101   9.984
25316SOL     OW77954   6.995   4.316   9.374
25316SOL    HW177955   6.947   4.289   9.456
25316SOL    HW277956   7.084   4.285   9.392
25317SOL     OW77957   6.107   3.965   9.626
25317SOL    HW177958   6.148   3.936   9.543
25317SOL    HW277959   6.075   4.054   9.599
25318SOL     OW77960   7.342   4.955  10.867
25318SOL    HW177961   7.436   4.933  10.873
25318SOL    HW277962   7.344   5.051  10.886
25319SOL     OW77963   6.634   5.115  10.680
25319SOL    HW177964   6.556   5.064  10.708
25319SOL    HW277965   6.706   5.051  10.691
25320SOL     OW77966   6.704   4.965  10.417
25320SOL    HW177967   6.621   4.960  10.465
25320SOL    HW277968   6.676   5.003  10.332
25321SOL     OW77969   7.213   4.815  10.385
25321SOL    HW177970   7.223   4.879  10.458
25321SOL    HW277971   7.141   4.857  10.336
25322SOL     OW77972   6.486   3.838  10.689
25322SOL    HW177973   6.521   3.808  10.603
25322SOL    HW277974   6.566   3.871  10.733
25323SOL     OW77975   6.294   4.784   9.664
25323SOL    HW177976   6.284   4.760   9.758
25323SOL    HW277977   6.368   4.726   9.637
25324SOL     OW77978   6.027   4.541  10.582
25324SOL    HW177979   6.092   4.539  10.655
25324SOL    HW277980   5.983   4.455  10.592
25325SOL     OW77981   6.848   4.097  10.606
25325SOL    HW177982   6.873   4.186  10.636
25325SOL    HW277983   6.781   4.115  10.538
25326SOL     OW77984   5.654   5.287  10.644
25326SOL    HW177985   5.643   5.383  10.633
25326SOL    HW277986   5.751   5.276  10.646
25327SOL     OW77987   5.954   4.821   9.809
25327SOL    HW177988   5.992   4.880   9.743
25327SOL    HW277989   5.929   4.743   9.756
25328SOL     OW77990   6.127   4.266  10.158
25328SOL    HW177991   6.154   4.331  10.090
25328SOL    HW277992   6.194   4.278  10.227
25329SOL     OW77993   6.814   5.053   9.704
25329SOL    HW177994   6.857   5.130   9.742
25329SOL    HW277995   6.720   5.069   9.726
25330SOL     OW77996   6.881   5.191  10.467
25330SOL    HW177997   6.941   5.190  10.543
25330SOL    HW277998   6.826   5.112  10.481
25331SOL     OW77999   7.168   4.330   9.789
25331SOL    HW178000   7.117   4.382   9.853
25331SOL    HW278001   7.195   4.397   9.725
25332SOL     OW78002   5.921   5.242  10.632
25332SOL    HW178003   5.911   5.208  10.540
25332SOL    HW278004   6.017   5.257  10.636
25333SOL     OW78005   6.042   4.436  10.941
25333SOL    HW178006   6.103   4.478  10.877
25333SOL    HW278007   6.041   4.344  10.910
25334SOL     OW78008   7.195   4.477  10.987
25334SOL    HW178009   7.141   4.550  11.015
25334SOL    HW278010   7.261   4.523  10.933
25335SOL     OW78011   6.150   4.629  10.344
25335SOL    HW178012   6.195   4.714  10.343
25335SOL    HW278013   6.120   4.619  10.436
25336SOL     OW78014   6.900   4.540  10.381
25336SOL    HW178015   6.842   4.534  10.304
25336SOL    HW278016   6.960   4.465  10.366
25337SOL     OW78017   6.814   4.248   9.576
25337SOL    HW178018   6.809   4.172   9.637
25337SOL    HW278019   6.747   4.307   9.615
25338SOL     OW78020   5.888   3.926  10.549
25338SOL    HW178021   5.837   3.961  10.625
25338SOL    HW278022   5.858   3.833  10.548
25339SOL     OW78023   5.650   5.011  10.592
25339SOL    HW178024   5.670   4.960  10.673
25339SOL    HW278025   5.635   5.101  10.625
25340SOL     OW78026   6.314   4.378  10.359
25340SOL    HW178027   6.386   4.365  10.295
25340SOL    HW278028   6.270   4.460  10.329
25341SOL     OW78029   5.892   3.788   9.918
25341SOL    HW178030   5.866   3.878   9.944
25341SOL    HW278031   5.903   3.745  10.006
25342SOL     OW78032   7.182   4.097   9.663
25342SOL    HW178033   7.217   4.035   9.727
25342SOL    HW278034   7.170   4.178   9.717
25343SOL     OW78035   6.637   4.491  10.265
25343SOL    HW178036   6.631   4.511  10.360
25343SOL    HW278037   6.607   4.397  10.262
25344SOL     OW78038   6.576   5.283  10.968
25344SOL    HW178039   6.571   5.354  10.900
25344SOL    HW278040   6.535   5.210  10.920
25345SOL     OW78041   7.438   5.216  10.885
25345SOL    HW178042   7.459   5.245  10.795
25345SOL    HW278043   7.517   5.242  10.934
25346SOL     OW78044   5.967   4.645  11.077
25346SOL    HW178045   6.048   4.653   0.028
25346SOL    HW278046   5.985   4.562  11.028
25347SOL     OW78047   7.088   3.978   9.437
25347SOL    HW178048   7.010   3.926   9.466
25347SOL    HW278049   7.121   4.019   9.518
25348SOL     OW78050   6.862   4.555   9.335
25348SOL    HW178051   6.913   4.473   9.345
25348SOL    HW278052   6.893   4.584   9.247
25349SOL     OW78053   6.644   5.088  10.169
25349SOL    HW178054   6.660   5.011  10.111
25349SOL    HW278055   6.714   5.152  10.145
25350SOL     OW78056   5.875   4.550  10.321
25350SOL    HW178057   5.972   4.559  10.320
25350SOL    HW278058   5.864   4.453  10.327
25351SOL     OW78059   5.908   4.264  10.308
25351SOL    HW178060   5.869   4.178  10.284
25351SOL    HW278061   5.982   4.270  10.242
25352SOL     OW78062   6.724   3.944  10.794
25352SOL    HW178063   6.788   3.927  10.863
25352SOL    HW278064   6.778   3.984  10.723
25353SOL     OW78065   5.588   5.053   9.492
25353SOL    HW178066   5.496   5.069   9.461
25353SOL    HW278067   5.582   4.964   9.533
25354SOL     OW78068   5.679   5.517  10.242
25354SOL    HW178069   5.654   5.438  10.189
25354SOL    HW278070   5.773   5.530  10.214
25355SOL     OW78071   6.069   5.313  10.237
25355SOL    HW178072   6.142   5.377  10.249
25355SOL    HW278073   6.112   5.243  10.185
25356SOL     OW78074   6.563   4.530  10.543
25356SOL    HW178075   6.627   4.469  10.581
25356SOL    HW278076   6.479   4.487  10.559
25357SOL     OW78077   5.610   4.238  10.427
25357SOL    HW178078   5.693   4.228  10.378
25357SOL    HW278079   5.641   4.250  10.518
25358SOL     OW78080   6.379   4.290   9.699
25358SOL    HW178081   6.392   4.223   9.630
25358SOL    HW278082   6.309   4.346   9.661
25359SOL     OW78083   7.237   4.342  10.501
25359SOL    HW178084   7.225   4.272  10.566
25359SOL    HW278085   7.321   4.316  10.460
25360SOL     OW78086   5.822   5.254  11.029
25360SOL    HW178087   5.774   5.291   0.004
25360SOL    HW278088   5.882   5.192  11.071
25361SOL     OW78089   6.290   4.204  10.580
25361SOL    HW178090   6.236   4.128  10.554
25361SOL    HW278091   6.276   4.266  10.506
25362SOL     OW78092   6.529   5.420  10.731
25362SOL    HW178093   6.503   5.383  10.645
25362SOL    HW278094   6.500   5.513  10.726
25363SOL     OW78095   6.025   4.197   9.513
25363SOL    HW178096   6.091   4.267   9.519
25363SOL    HW278097   5.943   4.249   9.501
25364SOL     OW78098   5.757   4.868  10.803
25364SOL    HW178099   5.740   4.809  10.879
25364SOL    HW278100   5.773   4.803  10.730
25365SOL     OW78101   6.899   4.773  10.540
25365SOL    HW178102   6.909   4.698  10.478
25365SOL    HW278103   6.836   4.830  10.494
25366SOL     OW78104   6.894   4.583   9.601
25366SOL    HW178105   6.813   4.554   9.644
25366SOL    HW278106   6.871   4.577   9.506
25367SOL     OW78107   7.332   5.474  10.432
25367SOL    HW178108   7.405   5.496  10.372
25367SOL    HW278109   7.332   5.376  10.427
25368SOL     OW78110   6.834   5.459  10.455
25368SOL    HW178111   6.919   5.475  10.411
25368SOL    HW278112   6.834   5.362  10.461
25369SOL     OW78113   5.697   4.982  10.328
25369SOL    HW178114   5.680   4.997  10.424
25369SOL    HW278115   5.615   4.939  10.300
25370SOL     OW78116   7.367   3.850   9.877
25370SOL    HW178117   7.386   3.847   9.781
25370SOL    HW278118   7.325   3.762   9.892
25371SOL     OW78119   6.952   5.307   9.798
25371SOL    HW178120   7.013   5.329   9.725
25371SOL    HW278121   6.909   5.392   9.817
25372SOL     OW78122   6.851   4.632   9.986
25372SOL    HW178123   6.931   4.576   9.989
25372SOL    HW278124   6.885   4.712   9.941
25373SOL     OW78125   6.385   4.981  10.739
25373SOL    HW178126   6.359   5.024  10.823
25373SOL    HW278127   6.310   5.004  10.682
25374SOL     OW78128   6.250   5.350   9.468
25374SOL    HW178129   6.269   5.349   9.373
25374SOL    HW278130   6.197   5.268   9.476
25375SOL     OW78131   7.209   5.441  10.680
25375SOL    HW178132   7.259   5.460  10.599
25375SOL    HW278133   7.197   5.529  10.719
25376SOL     OW78134   5.836   4.038  10.005
25376SOL    HW178135   5.751   4.083   9.988
25376SOL    HW278136   5.842   4.040  10.102
25377SOL     OW78137   6.770   5.348   9.341
25377SOL    HW178138   6.779   5.252   9.352
25377SOL    HW278139   6.715   5.356   9.261
25378SOL     OW78140   6.399   4.715  10.701
25378SOL    HW178141   6.445   4.710  10.616
25378SOL    HW278142   6.402   4.810  10.723
25379SOL     OW78143   6.492   4.634   9.584
25379SOL    HW178144   6.566   4.680   9.541
25379SOL    HW278145   6.534   4.555   9.622
25380SOL     OW78146   7.133   5.347   9.346
25380SOL    HW178147   7.037   5.359   9.341
25380SOL    HW278148   7.159   5.352   9.252
25381SOL     OW78149   5.969   5.018  10.799
25381SOL    HW178150   5.937   5.085  10.736
25381SOL    HW278151   5.891   4.958  10.804
25382SOL     OW78152   7.197   5.022  10.576
25382SOL    HW178153   7.258   5.002  10.648
25382SOL    HW278154   7.144   5.095  10.615
25383SOL     OW78155   6.648   4.848  10.049
25383SOL    HW178156   6.565   4.802  10.066
25383SOL    HW278157   6.703   4.777  10.013
25384SOL     OW78158   6.628   3.962  10.302
25384SOL    HW178159   6.620   3.915  10.217
25384SOL    HW278160   6.623   3.887  10.366
25385SOL     OW78161   6.212   5.211   9.802
25385SOL    HW178162   6.259   5.171   9.727
25385SOL    HW278163   6.129   5.238   9.760
25386SOL     OW78164   7.295   4.102  10.694
25386SOL    HW178165   7.360   4.174  10.704
25386SOL    HW278166   7.333   4.052  10.619
25387SOL     OW78167   5.830   5.116   9.590
25387SOL    HW178168   5.734   5.103   9.578
25387SOL    HW278169   5.838   5.122   9.688
25388SOL     OW78170   5.707   4.730  11.021
25388SOL    HW178171   5.635   4.715  11.083
25388SOL    HW278172   5.787   4.700  11.069
25389SOL     OW78173   6.251   3.926  10.780
25389SOL    HW178174   6.336   3.904  10.737
25389SOL    HW278175   6.279   3.949  10.870
25390SOL     OW78176   5.689   4.074   9.334
25390SOL    HW178177   5.594   4.075   9.322
25390SOL    HW278178   5.717   4.145   9.274
25391SOL     OW78179   7.020   4.563  10.701
25391SOL    HW178180   6.972   4.638  10.663
25391SOL    HW278181   7.112   4.591  10.687
25392SOL     OW78182   5.637   3.891   9.608
25392SOL    HW178183   5.632   3.982   9.575
25392SOL    HW278184   5.720   3.859   9.567
25393SOL     OW78185   6.787   5.077   9.425
25393SOL    HW178186   6.711   5.019   9.438
25393SOL    HW278187   6.820   5.083   9.516
25394SOL     OW78188   6.224   4.528  10.765
25394SOL    HW178189   6.277   4.608  10.745
25394SOL    HW278190   6.292   4.460  10.765
25395SOL     OW78191   7.088   5.476  10.297
25395SOL    HW178192   7.128   5.522  10.222
25395SOL    HW278193   7.164   5.465  10.357
25396SOL     OW78194   6.324   4.294  11.009
25396SOL    HW178195   6.344   4.350  11.085
25396SOL    HW278196   6.303   4.208  11.048
25397SOL     OW78197   5.956   5.447  10.867
25397SOL    HW178198   5.879   5.505  10.851
25397SOL    HW278199   5.917   5.375  10.920
25398SOL     OW78200   7.280   4.611  10.577
25398SOL    HW178201   7.266   4.520  10.546
25398SOL    HW278202   7.251   4.666  10.502
25399SOL     OW78203   6.784   4.055   9.773
25399SOL    HW178204   6.847   3.983   9.761
25399SOL    HW278205   6.821   4.103   9.850
25400SOL     OW78206   6.188   4.463   9.968
25400SOL    HW178207   6.211   4.556   9.952
25400SOL    HW278208   6.106   4.454   9.915
25401SOL     OW78209   7.357   4.031  10.957
25401SOL    HW178210   7.328   4.054  10.866
25401SOL    HW278211   7.279   4.052  11.009
25402SOL     OW78212   7.336   4.670  10.835
25402SOL    HW178213   7.332   4.767  10.845
25402SOL    HW278214   7.330   4.659  10.738
25403SOL     OW78215   6.428   5.086   9.345
25403SOL    HW178216   6.416   5.102   9.441
25403SOL    HW278217   6.468   5.169   9.313
25404SOL     OW78218   6.251   5.509  10.234
25404SOL    HW178219   6.255   5.605  10.227
25404SOL    HW278220   6.343   5.483  10.217
25405SOL     OW78221   6.458   4.682  10.163
25405SOL    HW178222   6.509   4.607  10.196
25405SOL    HW278223   6.440   4.735  10.243
25406SOL     OW78224   6.683   4.742   9.416
25406SOL    HW178225   6.642   4.784   9.339
25406SOL    HW278226   6.732   4.670   9.372
25407SOL     OW78227   7.431   5.280  10.162
25407SOL    HW178228   7.358   5.269  10.101
25407SOL    HW278229   7.403   5.229  10.240
25408SOL     OW78230   5.670   4.967   9.979
25408SOL    HW178231   5.652   4.903  10.050
25408SOL    HW278232   5.757   4.939   9.950
25409SOL     OW78233   6.272   5.137  10.936
25409SOL    HW178234   6.200   5.082  10.975
25409SOL    HW278235   6.223   5.216  10.909
25410SOL     OW78236   7.393   3.912  10.508
25410SOL    HW178237   7.404   3.821  10.539
25410SOL    HW278238   7.463   3.921  10.443
25411SOL     OW78239   6.017   4.162   9.835
25411SOL    HW178240   6.064   4.092   9.788
25411SOL    HW278241   5.966   4.114   9.903
25412SOL     OW78242   7.313   5.210  10.408
25412SOL    HW178243   7.229   5.184  10.369
25412SOL    HW278244   7.318   5.149  10.483
25413SOL     OW78245   5.928   4.268  10.592
25413SOL    HW178246   5.985   4.211  10.647
25413SOL    HW278247   5.937   4.232  10.503
25414SOL     OW78248   6.413   5.309   9.984
25414SOL    HW178249   6.409   5.336   9.891
25414SOL    HW278250   6.328   5.264   9.995
25415SOL     OW78251   7.018   3.963  10.438
25415SOL    HW178252   7.057   3.885  10.479
25415SOL    HW278253   6.965   4.001  10.511
25416SOL     OW78254   6.613   3.741  10.462
25416SOL    HW178255   6.558   3.672  10.423
25416SOL    HW278256   6.701   3.696  10.465
25417SOL     OW78257   6.375   5.062   9.619
25417SOL    HW178258   6.342   4.971   9.617
25417SOL    HW278259   6.446   5.057   9.684
25418SOL     OW78260   6.192   5.279  10.595
25418SOL    HW178261   6.196   5.368  10.637
25418SOL    HW278262   6.274   5.280  10.544
25419SOL     OW78263   6.893   3.773   9.476
25419SOL    HW178264   6.913   3.708   9.408
25419SOL    HW278265   6.805   3.742   9.507
25420SOL     OW78266   6.895   4.191  10.005
25420SOL    HW178267   6.837   4.269   9.997
25420SOL    HW278268   6.876   4.161  10.096
25421SOL     OW78269   7.200   3.934  10.189
25421SOL    HW178270   7.136   3.928  10.262
25421SOL    HW278271   7.170   4.013  10.141
25422SOL     OW78272   5.626   4.808   9.623
25422SOL    HW178273   5.722   4.801   9.605
25422SOL    HW278274   5.602   4.714   9.630
25423SOL     OW78275   6.458   5.371   9.637
25423SOL    HW178276   6.381   5.359   9.577
25423SOL    HW278277   6.440   5.455   9.682
25424SOL     OW78278   5.821   6.202   0.127
25424SOL    HW178279   5.733   6.212   0.167
25424SOL    HW278280   5.821   6.263   0.052
25425SOL     OW78281   5.830   5.864   0.998
25425SOL    HW178282   5.850   5.845   1.092
25425SOL    HW278283   5.743   5.820   0.989
25426SOL     OW78284   5.606   6.010   0.647
25426SOL    HW178285   5.521   6.017   0.694
25426SOL    HW278286   5.584   5.952   0.573
25427SOL     OW78287   6.153   6.883   1.195
25427SOL    HW178288   6.070   6.889   1.147
25427SOL    HW278289   6.161   6.972   1.234
25428SOL     OW78290   7.125   7.104   0.714
25428SOL    HW178291   7.090   7.076   0.800
25428SOL    HW278292   7.048   7.100   0.654
25429SOL     OW78293   6.704   6.278   0.708
25429SOL    HW178294   6.749   6.360   0.682
25429SOL    HW278295   6.674   6.299   0.798
25430SOL     OW78296   7.368   6.193   0.228
25430SOL    HW178297   7.317   6.222   0.152
25430SOL    HW278298   7.313   6.123   0.266
25431SOL     OW78299   6.309   6.749   1.012
25431SOL    HW178300   6.257   6.792   1.083
25431SOL    HW278301   6.354   6.826   0.974
25432SOL     OW78302   6.460   6.332   1.804
25432SOL    HW178303   6.441   6.394   1.875
25432SOL    HW278304   6.487   6.390   1.730
25433SOL     OW78305   6.268   6.588   0.633
25433SOL    HW178306   6.336   6.577   0.700
25433SOL    HW278307   6.201   6.643   0.679
25434SOL     OW78308   6.286   6.741   1.806
25434SOL    HW178309   6.332   6.825   1.827
25434SOL    HW278310   6.197   6.771   1.779
25435SOL     OW78311   5.905   7.006   1.068
25435SOL    HW178312   5.832   6.966   1.018
25435SOL    HW278313   5.955   7.057   1.000
25436SOL     OW78314   7.058   7.094   1.367
25436SOL    HW178315   7.111   7.175   1.380
25436SOL    HW278316   6.994   7.100   1.440
25437SOL     OW78317   6.012   5.988   1.536
25437SOL    HW178318   6.094   5.941   1.516
25437SOL    HW278319   5.943   5.925   1.510
25438SOL     OW78320   7.211   6.039   0.755
25438SOL    HW178321   7.139   6.061   0.694
25438SOL    HW278322   7.184   6.089   0.834
25439SOL     OW78323   5.815   7.295   0.484
25439SOL    HW178324   5.844   7.377   0.527
25439SOL    HW278325   5.864   7.298   0.401
25440SOL     OW78326   6.708   6.937   1.657
25440SOL    HW178327   6.762   6.931   1.737
25440SOL    HW278328   6.664   6.850   1.660
25441SOL     OW78329   5.838   7.010   0.519
25441SOL    HW178330   5.834   7.107   0.532
25441SOL    HW278331   5.769   6.979   0.581
25442SOL     OW78332   5.855   6.677   0.908
25442SOL    HW178333   5.861   6.599   0.966
25442SOL    HW278334   5.799   6.737   0.961
25443SOL     OW78335   6.186   7.387   1.400
25443SOL    HW178336   6.118   7.357   1.463
25443SOL    HW278337   6.210   7.475   1.437
25444SOL     OW78338   6.162   6.583   0.140
25444SOL    HW178339   6.200   6.650   0.082
25444SOL    HW278340   6.209   6.603   0.224
25445SOL     OW78341   7.198   5.682   1.493
25445SOL    HW178342   7.213   5.764   1.444
25445SOL    HW278343   7.195   5.715   1.585
25446SOL     OW78344   5.708   6.254   0.563
25446SOL    HW178345   5.675   6.167   0.590
25446SOL    HW278346   5.704   6.305   0.646
25447SOL     OW78347   7.433   7.325   0.367
25447SOL    HW178348   7.498   7.302   0.436
25447SOL    HW278349   7.458   7.417   0.347
25448SOL     OW78350   5.644   7.184   0.126
25448SOL    HW178351   5.624   7.094   0.157
25448SOL    HW278352   5.614   7.238   0.201
25449SOL     OW78353   7.285   6.492   0.628
25449SOL    HW178354   7.372   6.466   0.595
25449SOL    HW278355   7.257   6.559   0.563
25450SOL     OW78356   7.217   6.695   0.452
25450SOL    HW178357   7.285   6.721   0.389
25450SOL    HW278358   7.226   6.765   0.521
25451SOL     OW78359   5.710   6.337   1.586
25451SOL    HW178360   5.806   6.351   1.589
25451SOL    HW278361   5.678   6.419   1.628
25452SOL     OW78362   6.169   6.988   0.740
25452SOL    HW178363   6.141   6.894   0.745
25452SOL    HW278364   6.152   7.007   0.645
25453SOL     OW78365   6.875   6.815   1.423
25453SOL    HW178366   6.900   6.742   1.364
25453SOL    HW278367   6.930   6.795   1.502
25454SOL     OW78368   6.428   5.580   0.493
25454SOL    HW178369   6.455   5.673   0.483
25454SOL    HW278370   6.332   5.589   0.508
25455SOL     OW78371   5.757   6.566   1.256
25455SOL    HW178372   5.849   6.534   1.256
25455SOL    HW278373   5.710   6.494   1.211
25456SOL     OW78374   7.123   6.561   0.218
25456SOL    HW178375   7.042   6.514   0.243
25456SOL    HW278376   7.156   6.591   0.304
25457SOL     OW78377   6.756   7.391   1.613
25457SOL    HW178378   6.764   7.458   1.544
25457SOL    HW278379   6.781   7.309   1.567
25458SOL     OW78380   5.924   5.814   1.800
25458SOL    HW178381   5.977   5.891   1.821
25458SOL    HW278382   5.836   5.843   1.832
25459SOL     OW78383   7.051   7.015   0.960
25459SOL    HW178384   6.991   7.031   1.036
25459SOL    HW278385   7.024   6.924   0.934
25460SOL     OW78386   7.243   7.326   0.604
25460SOL    HW178387   7.245   7.284   0.517
25460SOL    HW278388   7.209   7.253   0.658
25461SOL     OW78389   6.159   6.288   0.268
25461SOL    HW178390   6.176   6.376   0.234
25461SOL    HW278391   6.099   6.302   0.344
25462SOL     OW78392   6.852   5.913   0.902
25462SOL    HW178393   6.763   5.886   0.933
25462SOL    HW278394   6.909   5.877   0.973
25463SOL     OW78395   7.150   7.233   0.325
25463SOL    HW178396   7.242   7.263   0.320
25463SOL    HW278397   7.131   7.214   0.231
25464SOL     OW78398   6.389   6.211   1.466
25464SOL    HW178399   6.371   6.173   1.555
25464SOL    HW278400   6.338   6.151   1.409
25465SOL     OW78401   6.988   6.040   1.681
25465SOL    HW178402   6.984   6.118   1.739
25465SOL    HW278403   7.008   6.080   1.594
25466SOL     OW78404   6.543   6.470   1.587
25466SOL    HW178405   6.590   6.392   1.550
25466SOL    HW278406   6.501   6.508   1.507
25467SOL     OW78407   6.540   5.960   1.236
25467SOL    HW178408   6.455   5.992   1.268
25467SOL    HW278409   6.518   5.905   1.160
25468SOL     OW78410   6.616   6.272   0.404
25468SOL    HW178411   6.628   6.289   0.499
25468SOL    HW278412   6.533   6.218   0.405
25469SOL     OW78413   5.693   6.415   0.779
25469SOL    HW178414   5.764   6.405   0.845
25469SOL    HW278415   5.647   6.493   0.812
25470SOL     OW78416   5.698   7.412   1.568
25470SOL    HW178417   5.707   7.398   1.665
25470SOL    HW278418   5.610   7.450   1.559
25471SOL     OW78419   6.468   5.954   0.206
25471SOL    HW178420   6.517   6.010   0.142
25471SOL    HW278421   6.491   5.865   0.176
25472SOL     OW78422   7.299   6.175   1.833
25472SOL    HW178423   7.264   6.250   1.782
25472SOL    HW278424   7.327   6.114   1.763
25473SOL     OW78425   6.945   6.751   0.571
25473SOL    HW178426   7.028   6.737   0.522
25473SOL    HW278427   6.896   6.810   0.511
25474SOL     OW78428   6.141   5.789   0.903
25474SOL    HW178429   6.141   5.806   0.999
25474SOL    HW278430   6.130   5.877   0.864
25475SOL     OW78431   6.576   7.012   0.490
25475SOL    HW178432   6.546   7.087   0.435
25475SOL    HW278433   6.576   7.051   0.579
25476SOL     OW78434   5.924   7.385   0.855
25476SOL    HW178435   5.977   7.304   0.865
25476SOL    HW278436   5.990   7.453   0.877
25477SOL     OW78437   7.405   6.633   0.884
25477SOL    HW178438   7.347   6.617   0.808
25477SOL    HW278439   7.346   6.622   0.960
25478SOL     OW78440   6.803   7.145   1.490
25478SOL    HW178441   6.784   7.081   1.560
25478SOL    HW278442   6.768   7.099   1.413
25479SOL     OW78443   5.902   6.562   0.276
25479SOL    HW178444   5.985   6.563   0.225
25479SOL    HW278445   5.868   6.474   0.258
25480SOL     OW78446   7.061   6.339   0.711
25480SOL    HW178447   7.064   6.304   0.801
25480SOL    HW278448   7.142   6.393   0.707
25481SOL     OW78449   6.048   6.862   1.725
25481SOL    HW178450   6.006   6.867   1.636
25481SOL    HW278451   5.969   6.866   1.781
25482SOL     OW78452   6.672   7.354   0.212
25482SOL    HW178453   6.632   7.299   0.281
25482SOL    HW278454   6.703   7.289   0.147
25483SOL     OW78455   5.758   5.877   1.501
25483SOL    HW178456   5.686   5.931   1.537
25483SOL    HW278457   5.741   5.791   1.542
25484SOL     OW78458   7.204   6.926   0.096
25484SOL    HW178459   7.162   7.010   0.071
25484SOL    HW278460   7.148   6.861   0.050
25485SOL     OW78461   6.037   7.332   0.304
25485SOL    HW178462   6.082   7.373   0.380
25485SOL    HW278463   6.111   7.316   0.244
25486SOL     OW78464   6.983   5.704   0.450
25486SOL    HW178465   6.989   5.650   0.369
25486SOL    HW278466   7.076   5.727   0.465
25487SOL     OW78467   5.832   7.386   1.226
25487SOL    HW178468   5.890   7.319   1.265
25487SOL    HW278469   5.821   7.354   1.135
25488SOL     OW78470   6.543   7.284   0.878
25488SOL    HW178471   6.628   7.239   0.887
25488SOL    HW278472   6.497   7.228   0.813
25489SOL     OW78473   5.975   6.258   0.473
25489SOL    HW178474   5.993   6.162   0.487
25489SOL    HW278475   5.885   6.265   0.509
25490SOL     OW78476   7.159   5.807   1.733
25490SOL    HW178477   7.144   5.817   1.830
25490SOL    HW278478   7.069   5.818   1.701
25491SOL     OW78479   6.214   5.680   0.113
25491SOL    HW178480   6.310   5.674   0.131
25491SOL    HW278481   6.208   5.672   0.018
25492SOL     OW78482   6.360   5.841   1.730
25492SOL    HW178483   6.440   5.786   1.741
25492SOL    HW278484   6.312   5.825   1.813
25493SOL     OW78485   6.462   7.136   1.188
25493SOL    HW178486   6.448   7.108   1.096
25493SOL    HW278487   6.523   7.070   1.222
25494SOL     OW78488   6.391   6.996   0.931
25494SOL    HW178489   6.479   6.988   0.889
25494SOL    HW278490   6.330   6.996   0.855
25495SOL     OW78491   6.532   6.101   0.900
25495SOL    HW178492   6.516   6.086   0.804
25495SOL    HW278493   6.556   6.012   0.929
25496SOL     OW78494   6.161   5.636   0.507
25496SOL    HW178495   6.081   5.649   0.561
25496SOL    HW278496   6.153   5.713   0.446
25497SOL     OW78497   7.010   6.745   0.012
25497SOL    HW178498   7.043   6.685   0.081
25497SOL    HW278499   6.938   6.791   0.056
25498SOL     OW78500   5.855   5.649   0.231
25498SOL    HW178501   5.888   5.704   0.157
25498SOL    HW278502   5.931   5.588   0.243
25499SOL     OW78503   6.523   5.838   0.465
25499SOL    HW178504   6.504   5.886   0.383
25499SOL    HW278505   6.618   5.852   0.475
25500SOL     OW78506   6.679   6.266   1.479
25500SOL    HW178507   6.634   6.181   1.477
25500SOL    HW278508   6.772   6.242   1.458
25501SOL     OW78509   6.821   7.171   0.797
25501SOL    HW178510   6.830   7.238   0.727
25501SOL    HW278511   6.901   7.186   0.849
25502SOL     OW78512   6.068   6.732   0.741
25502SOL    HW178513   5.997   6.706   0.803
25502SOL    HW278514   6.022   6.721   0.654
25503SOL     OW78515   6.853   7.394   0.621
25503SOL    HW178516   6.901   7.462   0.570
25503SOL    HW278517   6.802   7.448   0.683
25504SOL     OW78518   6.610   6.104   0.031
25504SOL    HW178519   6.573   6.194   0.024
25504SOL    HW278520   6.701   6.122   0.056
25505SOL     OW78521   5.625   6.156   1.397
25505SOL    HW178522   5.720   6.146   1.377
25505SOL    HW278523   5.627   6.231   1.459
25506SOL     OW78524   6.154   5.825   1.175
25506SOL    HW178525   6.197   5.752   1.222
25506SOL    HW278526   6.062   5.815   1.205
25507SOL     OW78527   6.477   6.030   0.652
25507SOL    HW178528   6.425   6.087   0.594
25507SOL    HW278529   6.487   5.950   0.597
25508SOL     OW78530   6.568   5.670   0.774
25508SOL    HW178531   6.549   5.648   0.682
25508SOL    HW278532   6.563   5.584   0.818
25509SOL     OW78533   7.005   6.767   0.885
25509SOL    HW178534   6.941   6.696   0.903
25509SOL    HW278535   7.015   6.758   0.788
25510SOL     OW78536   7.094   6.157   0.962
25510SOL    HW178537   7.025   6.097   0.992
25510SOL    HW278538   7.142   6.178   1.044
25511SOL     OW78539   7.459   6.419   0.369
25511SOL    HW178540   7.505   6.364   0.434
25511SOL    HW278541   7.418   6.351   0.313
25512SOL     OW78542   6.081   7.032   0.150
25512SOL    HW178543   6.001   7.002   0.197
25512SOL    HW278544   6.090   6.965   0.079
25513SOL     OW78545   7.254   6.870   0.650
25513SOL    HW178546   7.350   6.878   0.665
25513SOL    HW278547   7.219   6.957   0.675
25514SOL     OW78548   6.976   6.188   0.088
25514SOL    HW178549   6.933   6.152   0.169
25514SOL    HW278550   7.032   6.115   0.061
25515SOL     OW78551   6.112   5.819   0.324
25515SOL    HW178552   6.145   5.771   0.245
25515SOL    HW278553   6.084   5.903   0.283
25516SOL     OW78554   7.313   6.821   1.572
25516SOL    HW178555   7.398   6.777   1.584
25516SOL    HW278556   7.339   6.913   1.588
25517SOL     OW78557   6.658   6.940   1.318
25517SOL    HW178558   6.579   6.911   1.366
25517SOL    HW278559   6.728   6.893   1.368
25518SOL     OW78560   7.195   7.191   1.631
25518SOL    HW178561   7.201   7.232   1.542
25518SOL    HW278562   7.278   7.141   1.636
25519SOL     OW78563   6.693   6.790   1.086
25519SOL    HW178564   6.651   6.843   1.155
25519SOL    HW278565   6.664   6.833   1.004
25520SOL     OW78566   7.190   6.686   1.080
25520SOL    HW178567   7.199   6.751   1.152
25520SOL    HW278568   7.132   6.733   1.018
25521SOL     OW78569   6.504   5.678   1.407
25521SOL    HW178570   6.530   5.664   1.314
25521SOL    HW278571   6.581   5.727   1.441
25522SOL     OW78572   6.584   6.700   1.736
25522SOL    HW178573   6.492   6.716   1.764
25522SOL    HW278574   6.575   6.625   1.675
25523SOL     OW78575   6.314   6.647   0.368
25523SOL    HW178576   6.299   6.621   0.461
25523SOL    HW278577   6.382   6.584   0.336
25524SOL     OW78578   5.994   6.405   1.268
25524SOL    HW178579   6.073   6.398   1.326
25524SOL    HW278580   5.954   6.317   1.275
25525SOL     OW78581   6.828   5.935   1.234
25525SOL    HW178582   6.864   6.009   1.288
25525SOL    HW278583   6.738   5.965   1.216
25526SOL     OW78584   5.668   7.154   1.345
25526SOL    HW178585   5.670   7.244   1.310
25526SOL    HW278586   5.763   7.129   1.342
25527SOL     OW78587   5.948   6.706   0.506
25527SOL    HW178588   5.962   6.780   0.445
25527SOL    HW278589   5.928   6.634   0.444
25528SOL     OW78590   6.131   6.124   0.873
25528SOL    HW178591   6.155   6.185   0.799
25528SOL    HW278592   6.201   6.144   0.937
25529SOL     OW78593   6.814   6.924   0.393
25529SOL    HW178594   6.864   7.002   0.424
25529SOL    HW278595   6.724   6.943   0.426
25530SOL     OW78596   6.887   7.051   1.168
25530SOL    HW178597   6.949   7.050   1.244
25530SOL    HW278598   6.817   6.991   1.197
25531SOL     OW78599   7.167   6.205   0.477
25531SOL    HW178600   7.123   6.245   0.554
25531SOL    HW278601   7.182   6.282   0.422
25532SOL     OW78602   5.925   7.084   1.313
25532SOL    HW178603   5.920   7.054   1.220
25532SOL    HW278604   6.019   7.110   1.317
25533SOL     OW78605   6.029   6.313   1.631
25533SOL    HW178606   6.082   6.355   1.562
25533SOL    HW278607   6.065   6.223   1.633
25534SOL     OW78608   7.205   6.371   1.671
25534SOL    HW178609   7.118   6.380   1.632
25534SOL    HW278610   7.260   6.415   1.602
25535SOL     OW78611   6.583   5.699   1.765
25535SOL    HW178612   6.645   5.772   1.750
25535SOL    HW278613   6.629   5.626   1.719
25536SOL     OW78614   6.080   5.600   1.757
25536SOL    HW178615   6.042   5.549   1.684
25536SOL    HW278616   6.018   5.675   1.763
25537SOL     OW78617   6.156   6.491   1.024
25537SOL    HW178618   6.201   6.577   1.023
25537SOL    HW278619   6.114   6.491   1.111
25538SOL     OW78620   6.937   6.452   1.010
25538SOL    HW178621   6.850   6.414   0.995
25538SOL    HW278622   6.987   6.375   1.038
25539SOL     OW78623   6.815   6.101   0.285
25539SOL    HW178624   6.821   6.028   0.350
25539SOL    HW278625   6.748   6.158   0.327
25540SOL     OW78626   5.888   5.795   1.249
25540SOL    HW178627   5.837   5.820   1.328
25540SOL    HW278628   5.869   5.698   1.245
25541SOL     OW78629   5.594   6.888   1.288
25541SOL    HW178630   5.639   6.825   1.349
25541SOL    HW278631   5.632   6.973   1.314
25542SOL     OW78632   6.308   6.232   1.055
25542SOL    HW178633   6.391   6.217   1.007
25542SOL    HW278634   6.279   6.321   1.028
25543SOL     OW78635   7.346   6.536   1.849
25543SOL    HW178636   7.292   6.480   1.792
25543SOL    HW278637   7.286   6.553   1.923
25544SOL     OW78638   5.901   5.657   0.614
25544SOL    HW178639   5.883   5.745   0.652
25544SOL    HW278640   5.902   5.602   0.695
25545SOL     OW78641   7.197   5.973   0.346
25545SOL    HW178642   7.225   5.905   0.409
25545SOL    HW278643   7.180   6.051   0.404
25546SOL     OW78644   6.645   6.337   0.981
25546SOL    HW178645   6.623   6.345   1.076
25546SOL    HW278646   6.618   6.245   0.961
25547SOL     OW78647   6.561   7.153   1.701
25547SOL    HW178648   6.551   7.204   1.618
25547SOL    HW278649   6.597   7.069   1.669
25548SOL     OW78650   7.439   7.080   1.601
25548SOL    HW178651   7.464   7.101   1.509
25548SOL    HW278652   7.519   7.105   1.650
25549SOL     OW78653   5.932   6.490   1.800
25549SOL    HW178654   6.011   6.515   1.850
25549SOL    HW278655   5.964   6.412   1.749
25550SOL     OW78656   7.102   5.863   0.109
25550SOL    HW178657   7.037   5.805   0.151
25550SOL    HW278658   7.151   5.898   0.185
25551SOL     OW78659   6.860   6.424   0.023
25551SOL    HW178660   6.906   6.340   0.043
25551SOL    HW278661   6.908   6.453  11.045
25552SOL     OW78662   6.639   6.949   0.844
25552SOL    HW178663   6.656   6.870   0.790
25552SOL    HW278664   6.714   7.008   0.824
25553SOL     OW78665   5.873   6.396   0.989
25553SOL    HW178666   5.966   6.411   0.965
25553SOL    HW278667   5.876   6.303   1.017
25554SOL     OW78668   5.904   6.124   1.003
25554SOL    HW178669   5.883   6.030   0.989
25554SOL    HW278670   5.985   6.132   0.949
25555SOL     OW78671   6.740   5.937   1.702
25555SOL    HW178672   6.699   6.000   1.765
25555SOL    HW278673   6.833   5.969   1.700
25556SOL     OW78674   6.748   5.782   1.474
25556SOL    HW178675   6.752   5.848   1.546
25556SOL    HW278676   6.792   5.829   1.401
25557SOL     OW78677   5.570   6.926   0.224
25557SOL    HW178678   5.484   6.930   0.176
25557SOL    HW278679   5.584   6.829   0.230
25558SOL     OW78680   5.677   7.359   0.941
25558SOL    HW178681   5.649   7.285   0.882
25558SOL    HW278682   5.769   7.374   0.909
25559SOL     OW78683   6.067   7.150   0.920
25559SOL    HW178684   6.140   7.214   0.926
25559SOL    HW278685   6.101   7.086   0.854
25560SOL     OW78686   6.564   6.355   1.245
25560SOL    HW178687   6.623   6.329   1.318
25560SOL    HW278688   6.479   6.326   1.279
25561SOL     OW78689   5.619   6.112   1.111
25561SOL    HW178690   5.702   6.098   1.064
25561SOL    HW278691   5.650   6.131   1.201
25562SOL     OW78692   5.807   6.102   1.711
25562SOL    HW178693   5.864   6.058   1.645
25562SOL    HW278694   5.765   6.173   1.660
25563SOL     OW78695   6.929   6.523   1.647
25563SOL    HW178696   6.978   6.606   1.652
25563SOL    HW278697   6.955   6.492   1.557
25564SOL     OW78698   6.380   6.145   0.380
25564SOL    HW178699   6.405   6.076   0.316
25564SOL    HW278700   6.302   6.185   0.337
25565SOL     OW78701   7.214   6.213   1.201
25565SOL    HW178702   7.159   6.172   1.271
25565SOL    HW278703   7.288   6.151   1.190
25566SOL     OW78704   5.829   7.123   1.718
25566SOL    HW178705   5.821   7.189   1.789
25566SOL    HW278706   5.837   7.040   1.769
25567SOL     OW78707   6.260   6.065   1.271
25567SOL    HW178708   6.222   5.986   1.230
25567SOL    HW278709   6.268   6.127   1.196
25568SOL     OW78710   6.501   7.280   1.475
25568SOL    HW178711   6.495   7.255   1.382
25568SOL    HW278712   6.506   7.377   1.471
25569SOL     OW78713   6.037   6.052   0.203
25569SOL    HW178714   6.094   6.131   0.211
25569SOL    HW278715   5.950   6.095   0.191
25570SOL     OW78716   5.694   6.715   1.466
25570SOL    HW178717   5.708   6.663   1.549
25570SOL    HW278718   5.714   6.649   1.396
25571SOL     OW78719   6.896   6.627   1.226
25571SOL    HW178720   6.917   6.572   1.149
25571SOL    HW278721   6.822   6.680   1.193
25572SOL     OW78722   6.892   6.445   0.304
25572SOL    HW178723   6.813   6.407   0.345
25572SOL    HW278724   6.872   6.440   0.210
25573SOL     OW78725   7.338   7.336   1.130
25573SOL    HW178726   7.409   7.357   1.067
25573SOL    HW278727   7.330   7.239   1.116
25574SOL     OW78728   6.829   7.311   1.110
25574SOL    HW178729   6.916   7.339   1.080
25574SOL    HW278730   6.840   7.216   1.125
25575SOL     OW78731   5.680   6.843   1.030
25575SOL    HW178732   5.640   6.854   1.118
25575SOL    HW278733   5.616   6.785   0.984
25576SOL     OW78734   6.276   7.225   1.736
25576SOL    HW178735   6.253   7.317   1.719
25576SOL    HW278736   6.366   7.219   1.700
25577SOL     OW78737   6.500   5.691   0.144
25577SOL    HW178738   6.555   5.657   0.071
25577SOL    HW278739   6.529   5.632   0.215
25578SOL     OW78740   7.265   5.725   0.496
25578SOL    HW178741   7.348   5.719   0.446
25578SOL    HW278742   7.264   5.642   0.547
25579SOL     OW78743   6.940   7.150   0.486
25579SOL    HW178744   7.011   7.166   0.422
25579SOL    HW278745   6.909   7.241   0.503
25580SOL     OW78746   5.734   7.380   1.833
25580SOL    HW178747   5.694   7.307   1.885
25580SOL    HW278748   5.785   7.426   1.902
25581SOL     OW78749   6.837   6.501   0.628
25581SOL    HW178750   6.918   6.455   0.654
25581SOL    HW278751   6.873   6.584   0.592
25582SOL     OW78752   6.406   6.853   1.422
25582SOL    HW178753   6.377   6.901   1.502
25582SOL    HW278754   6.329   6.865   1.365
25583SOL     OW78755   6.271   7.214   0.174
25583SOL    HW178756   6.284   7.217   0.079
25583SOL    HW278757   6.203   7.143   0.181
25584SOL     OW78758   7.210   7.310   1.382
25584SOL    HW178759   7.257   7.325   1.298
25584SOL    HW278760   7.198   7.401   1.416
25585SOL     OW78761   7.436   5.744   0.976
25585SOL    HW178762   7.448   5.657   0.935
25585SOL    HW278763   7.352   5.776   0.936
25586SOL     OW78764   5.845   5.905   0.714
25586SOL    HW178765   5.770   5.963   0.696
25586SOL    HW278766   5.849   5.905   0.811
25587SOL     OW78767   6.797   7.184   0.036
25587SOL    HW178768   6.804   7.089   0.058
25587SOL    HW278769   6.730   7.183  11.067
25588SOL     OW78770   6.402   6.588   1.387
25588SOL    HW178771   6.443   6.587   1.299
25588SOL    HW278772   6.407   6.682   1.412
25589SOL     OW78773   6.486   6.483   0.255
25589SOL    HW178774   6.551   6.528   0.197
25589SOL    HW278775   6.538   6.412   0.296
25590SOL     OW78776   7.095   7.180   0.047
25590SOL    HW178777   7.000   7.198   0.041
25590SOL    HW278778   7.129   7.202  11.061
25591SOL     OW78779   5.921   6.864   1.493
25591SOL    HW178780   5.922   6.928   1.420
25591SOL    HW278781   5.842   6.811   1.475
25592SOL     OW78782   7.194   6.897   1.268
25592SOL    HW178783   7.231   6.865   1.351
25592SOL    HW278784   7.135   6.969   1.300
25593SOL     OW78785   6.640   6.695   0.731
25593SOL    HW178786   6.561   6.646   0.759
25593SOL    HW278787   6.695   6.625   0.691
25594SOL     OW78788   6.616   5.818   0.990
25594SOL    HW178789   6.594   5.775   0.904
25594SOL    HW278790   6.620   5.741   1.049
25595SOL     OW78791   6.170   7.064   0.485
25595SOL    HW178792   6.234   7.023   0.423
25595SOL    HW278793   6.102   7.098   0.426
25596SOL     OW78794   7.298   5.943   1.380
25596SOL    HW178795   7.352   6.024   1.378
25596SOL    HW278796   7.348   5.883   1.321
25597SOL     OW78797   5.832   6.944   0.263
25597SOL    HW178798   5.737   6.940   0.241
25597SOL    HW278799   5.830   6.970   0.357
25598SOL     OW78800   5.707   6.595   1.702
25598SOL    HW178801   5.638   6.582   1.770
25598SOL    HW278802   5.789   6.564   1.748
25599SOL     OW78803   6.255   5.755   1.496
25599SOL    HW178804   6.344   5.726   1.466
25599SOL    HW278805   6.277   5.797   1.581
25600SOL     OW78806   5.685   5.943   0.037
25600SOL    HW178807   5.615   5.916  11.076
25600SOL    HW278808   5.702   6.034   0.009
25601SOL     OW78809   7.051   6.487   1.413
25601SOL    HW178810   6.997   6.516   1.338
25601SOL    HW278811   7.138   6.478   1.372
25602SOL     OW78812   5.628   5.760   0.334
25602SOL    HW178813   5.628   5.835   0.272
25602SOL    HW278814   5.718   5.725   0.317
25603SOL     OW78815   6.781   6.917   0.124
25603SOL    HW178816   6.686   6.908   0.112
25603SOL    HW278817   6.791   6.909   0.221
25604SOL     OW78818   6.206   6.396   1.426
25604SOL    HW178819   6.259   6.478   1.426
25604SOL    HW278820   6.277   6.331   1.441
25605SOL     OW78821   7.089   7.380   0.963
25605SOL    HW178822   7.129   7.413   0.882
25605SOL    HW278823   7.166   7.358   1.017
25606SOL     OW78824   6.310   6.116   1.701
25606SOL    HW178825   6.357   6.179   1.759
25606SOL    HW278826   6.343   6.028   1.727
25607SOL     OW78827   7.048   6.771   1.627
25607SOL    HW178828   7.041   6.773   1.725
25607SOL    HW278829   7.143   6.786   1.614
25608SOL     OW78830   5.966   7.315   1.558
25608SOL    HW178831   5.878   7.355   1.547
25608SOL    HW278832   5.943   7.230   1.598
25609SOL     OW78833   7.293   6.467   1.236
25609SOL    HW178834   7.258   6.378   1.214
25609SOL    HW278835   7.248   6.524   1.172
25610SOL     OW78836   6.796   5.908   0.480
25610SOL    HW178837   6.860   5.835   0.472
25610SOL    HW278838   6.833   5.960   0.555
25611SOL     OW78839   6.161   6.327   0.685
25611SOL    HW178840   6.193   6.416   0.666
25611SOL    HW278841   6.103   6.308   0.608
25612SOL     OW78842   7.350   5.974   1.643
25612SOL    HW178843   7.317   5.975   1.551
25612SOL    HW278844   7.283   5.914   1.683
25613SOL     OW78845   7.340   6.514   1.498
25613SOL    HW178846   7.336   6.610   1.491
25613SOL    HW278847   7.342   6.487   1.404
25614SOL     OW78848   6.490   6.941   0.046
25614SOL    HW178849   6.402   6.936   0.086
25614SOL    HW278850   6.489   7.027   0.002
25615SOL     OW78851   6.232   7.379   0.905
25615SOL    HW178852   6.219   7.475   0.897
25615SOL    HW278853   6.327   7.371   0.924
25616SOL     OW78854   6.454   6.531   0.843
25616SOL    HW178855   6.505   6.461   0.885
25616SOL    HW278856   6.436   6.591   0.917
25617SOL     OW78857   6.643   6.583   0.070
25617SOL    HW178858   6.653   6.649   0.001
25617SOL    HW278859   6.720   6.525   0.055
25618SOL     OW78860   7.435   7.145   0.824
25618SOL    HW178861   7.343   7.134   0.797
25618SOL    HW278862   7.444   7.084   0.898
25619SOL     OW78863   5.823   6.903   1.867
25619SOL    HW178864   5.754   6.838   1.851
25619SOL    HW278865   5.814   6.917   1.963
25620SOL     OW78866   5.679   6.829   0.648
25620SOL    HW178867   5.703   6.785   0.731
25620SOL    HW278868   5.750   6.799   0.589
25621SOL     OW78869   6.257   6.986   1.607
25621SOL    HW178870   6.188   6.928   1.644
25621SOL    HW278871   6.242   7.070   1.655
25622SOL     OW78872   7.413   5.756   1.234
25622SOL    HW178873   7.430   5.662   1.249
25622SOL    HW278874   7.421   5.762   1.137
25623SOL     OW78875   6.027   5.997   0.527
25623SOL    HW178876   6.062   5.925   0.473
25623SOL    HW278877   5.974   5.953   0.596
25624SOL     OW78878   7.312   7.077   1.084
25624SOL    HW178879   7.228   7.049   1.046
25624SOL    HW278880   7.316   7.020   1.162
25625SOL     OW78881   5.898   6.132   1.280
25625SOL    HW178882   5.973   6.094   1.328
25625SOL    HW278883   5.919   6.110   1.188
25626SOL     OW78884   6.410   7.161   0.674
25626SOL    HW178885   6.401   7.186   0.581
25626SOL    HW278886   6.322   7.125   0.693
25627SOL     OW78887   7.016   5.814   1.085
25627SOL    HW178888   7.068   5.760   1.145
25627SOL    HW278889   6.953   5.858   1.147
25628SOL     OW78890   6.606   5.593   1.152
25628SOL    HW178891   6.552   5.516   1.130
25628SOL    HW278892   6.696   5.553   1.151
25629SOL     OW78893   6.350   6.925   0.342
25629SOL    HW178894   6.336   6.829   0.335
25629SOL    HW278895   6.432   6.928   0.395
25630SOL     OW78896   6.183   7.142   1.273
25630SOL    HW178897   6.185   7.230   1.314
25630SOL    HW278898   6.277   7.135   1.248
25631SOL     OW78899   6.901   5.610   0.178
25631SOL    HW178900   6.922   5.575   0.091
25631SOL    HW278901   6.815   5.567   0.197
25632SOL     OW78902   6.891   6.066   0.686
25632SOL    HW178903   6.823   6.135   0.689
25632SOL    HW278904   6.876   6.018   0.771
25633SOL     OW78905   7.185   5.785   0.865
25633SOL    HW178906   7.116   5.801   0.932
25633SOL    HW278907   7.182   5.866   0.812
25634SOL     OW78908   5.632   6.672   0.279
25634SOL    HW178909   5.729   6.665   0.274
25634SOL    HW278910   5.607   6.582   0.306
25635SOL     OW78911   6.476   7.222   0.364
25635SOL    HW178912   6.404   7.206   0.300
25635SOL    HW278913   6.454   7.313   0.395
25636SOL     OW78914   5.824   6.218   1.994
25636SOL    HW178915   5.733   6.202   2.023
25636SOL    HW278916   5.824   6.195   1.901
25637SOL     OW78917   5.816   5.864   2.865
25637SOL    HW178918   5.840   5.841   2.957
25637SOL    HW278919   5.732   5.816   2.855
25638SOL     OW78920   5.590   6.002   2.499
25638SOL    HW178921   5.503   6.015   2.543
25638SOL    HW278922   5.577   5.916   2.458
25639SOL     OW78923   6.159   6.878   3.057
25639SOL    HW178924   6.073   6.871   3.013
25639SOL    HW278925   6.166   6.973   3.074
25640SOL     OW78926   7.131   7.125   2.587
25640SOL    HW178927   7.101   7.088   2.673
25640SOL    HW278928   7.064   7.095   2.524
25641SOL     OW78929   6.718   6.269   2.575
25641SOL    HW178930   6.748   6.357   2.544
25641SOL    HW278931   6.688   6.290   2.665
25642SOL     OW78932   7.352   6.186   2.095
25642SOL    HW178933   7.333   6.180   1.999
25642SOL    HW278934   7.301   6.112   2.131
25643SOL     OW78935   6.324   6.745   2.879
25643SOL    HW178936   6.266   6.788   2.944
25643SOL    HW278937   6.366   6.822   2.838
25644SOL     OW78938   6.453   6.351   3.671
25644SOL    HW178939   6.473   6.417   3.738
25644SOL    HW278940   6.493   6.389   3.591
25645SOL     OW78941   6.273   6.616   2.515
25645SOL    HW178942   6.340   6.586   2.579
25645SOL    HW278943   6.209   6.662   2.573
25646SOL     OW78944   6.253   6.769   3.644
25646SOL    HW178945   6.295   6.825   3.713
25646SOL    HW278946   6.274   6.823   3.566
25647SOL     OW78947   5.903   7.012   2.941
25647SOL    HW178948   5.833   6.966   2.891
25647SOL    HW278949   5.949   7.065   2.873
25648SOL     OW78950   7.010   7.127   3.217
25648SOL    HW178951   7.077   7.195   3.236
25648SOL    HW278952   7.068   7.049   3.199
25649SOL     OW78953   6.013   5.981   3.349
25649SOL    HW178954   6.087   5.919   3.360
25649SOL    HW278955   5.936   5.921   3.344
25650SOL     OW78956   7.209   6.029   2.598
25650SOL    HW178957   7.147   6.063   2.532
25650SOL    HW278958   7.206   6.098   2.665
25651SOL     OW78959   5.810   7.296   2.333
25651SOL    HW178960   5.834   7.372   2.390
25651SOL    HW278961   5.875   7.305   2.261
25652SOL     OW78962   6.703   6.944   3.542
25652SOL    HW178963   6.774   6.930   3.605
25652SOL    HW278964   6.667   6.854   3.534
25653SOL     OW78965   5.830   7.016   2.392
25653SOL    HW178966   5.830   7.114   2.397
25653SOL    HW278967   5.765   6.992   2.459
25654SOL     OW78968   5.852   6.666   2.758
25654SOL    HW178969   5.858   6.591   2.818
25654SOL    HW278970   5.799   6.729   2.809
25655SOL     OW78971   6.172   7.394   3.252
25655SOL    HW178972   6.114   7.363   3.322
25655SOL    HW278973   6.204   7.480   3.288
25656SOL     OW78974   6.153   6.581   1.979
25656SOL    HW178975   6.203   6.632   1.911
25656SOL    HW278976   6.198   6.611   2.060
25657SOL     OW78977   7.187   5.697   3.334
25657SOL    HW178978   7.191   5.784   3.291
25657SOL    HW278979   7.196   5.721   3.428
25658SOL     OW78980   5.704   6.247   2.428
25658SOL    HW178981   5.672   6.156   2.446
25658SOL    HW278982   5.699   6.288   2.516
25659SOL     OW78983   7.430   7.322   2.211
25659SOL    HW178984   7.503   7.307   2.274
25659SOL    HW278985   7.447   7.414   2.184
25660SOL     OW78986   5.637   7.176   1.972
25660SOL    HW178987   5.628   7.082   1.996
25660SOL    HW278988   5.611   7.221   2.054
25661SOL     OW78989   7.271   6.498   2.512
25661SOL    HW178990   7.350   6.460   2.472
25661SOL    HW278991   7.238   6.553   2.439
25662SOL     OW78992   7.225   6.717   2.303
25662SOL    HW178993   7.317   6.704   2.272
25662SOL    HW278994   7.239   6.783   2.374
25663SOL     OW78995   5.697   6.337   3.437
25663SOL    HW178996   5.787   6.365   3.458
25663SOL    HW278997   5.647   6.420   3.440
25664SOL     OW78998   6.181   6.998   2.625
25664SOL    HW178999   6.143   6.908   2.637
25664SOL    HW279000   6.175   7.006   2.528
25665SOL     OW79001   6.869   6.826   3.276
25665SOL    HW179002   6.911   6.772   3.207
25665SOL    HW279003   6.935   6.819   3.347
25666SOL     OW79004   6.413   5.586   2.359
25666SOL    HW179005   6.449   5.677   2.356
25666SOL    HW279006   6.318   5.602   2.371
25667SOL     OW79007   5.763   6.549   3.125
25667SOL    HW179008   5.855   6.519   3.111
25667SOL    HW279009   5.711   6.482   3.079
25668SOL     OW79010   7.118   6.566   2.057
25668SOL    HW179011   7.042   6.516   2.092
25668SOL    HW279012   7.158   6.601   2.137
25669SOL     OW79013   6.750   7.389   3.475
25669SOL    HW179014   6.776   7.458   3.411
25669SOL    HW279015   6.774   7.308   3.427
25670SOL     OW79016   5.924   5.820   3.637
25670SOL    HW179017   5.997   5.873   3.673
25670SOL    HW279018   5.851   5.850   3.693
25671SOL     OW79019   7.057   7.012   2.816
25671SOL    HW179020   6.999   7.028   2.893
25671SOL    HW279021   7.032   6.920   2.793
25672SOL     OW79022   7.249   7.322   2.461
25672SOL    HW179023   7.241   7.278   2.375
25672SOL    HW279024   7.214   7.253   2.521
25673SOL     OW79025   6.177   6.296   2.122
25673SOL    HW179026   6.178   6.386   2.087
25673SOL    HW279027   6.108   6.301   2.191
25674SOL     OW79028   6.870   5.916   2.782
25674SOL    HW179029   6.779   5.887   2.801
25674SOL    HW279030   6.920   5.875   2.856
25675SOL     OW79031   7.159   7.230   2.168
25675SOL    HW179032   7.253   7.256   2.171
25675SOL    HW279033   7.148   7.213   2.073
25676SOL     OW79034   6.391   6.214   3.309
25676SOL    HW179035   6.375   6.180   3.401
25676SOL    HW279036   6.345   6.146   3.257
25677SOL     OW79037   6.985   6.074   3.541
25677SOL    HW179038   6.997   6.123   3.625
25677SOL    HW279039   7.039   5.995   3.557
25678SOL     OW79040   6.542   6.475   3.435
25678SOL    HW179041   6.587   6.392   3.405
25678SOL    HW279042   6.503   6.507   3.352
25679SOL     OW79043   6.573   5.992   3.102
25679SOL    HW179044   6.494   5.994   3.156
25679SOL    HW279045   6.548   5.937   3.027
25680SOL     OW79046   6.626   6.265   2.273
25680SOL    HW179047   6.632   6.287   2.367
25680SOL    HW279048   6.540   6.218   2.268
25681SOL     OW79049   5.683   6.394   2.661
25681SOL    HW179050   5.761   6.394   2.720
25681SOL    HW279051   5.635   6.473   2.691
25682SOL     OW79052   5.691   7.413   3.423
25682SOL    HW179053   5.701   7.397   3.519
25682SOL    HW279054   5.596   7.416   3.413
25683SOL     OW79055   6.470   5.957   2.068
25683SOL    HW179056   6.514   6.015   2.004
25683SOL    HW279057   6.493   5.870   2.033
25684SOL     OW79058   7.316   6.176   3.690
25684SOL    HW179059   7.269   6.252   3.650
25684SOL    HW279060   7.332   6.119   3.614
25685SOL     OW79061   6.947   6.733   2.418
25685SOL    HW179062   7.027   6.727   2.365
25685SOL    HW279063   6.894   6.795   2.365
25686SOL     OW79064   6.135   5.798   2.756
25686SOL    HW179065   6.141   5.802   2.854
25686SOL    HW279066   6.131   5.891   2.731
25687SOL     OW79067   6.564   7.032   2.348
25687SOL    HW179068   6.529   7.098   2.284
25687SOL    HW279069   6.585   7.086   2.425
25688SOL     OW79070   5.929   7.404   2.717
25688SOL    HW179071   5.976   7.320   2.732
25688SOL    HW279072   5.997   7.470   2.739
25689SOL     OW79073   7.407   6.634   2.715
25689SOL    HW179074   7.348   6.606   2.644
25689SOL    HW279075   7.350   6.627   2.793
25690SOL     OW79076   6.784   7.152   3.351
25690SOL    HW179077   6.777   7.075   3.409
25690SOL    HW279078   6.865   7.132   3.299
25691SOL     OW79079   5.886   6.547   2.109
25691SOL    HW179080   5.970   6.562   2.062
25691SOL    HW279081   5.857   6.462   2.072
25692SOL     OW79082   7.059   6.347   2.582
25692SOL    HW179083   7.058   6.313   2.673
25692SOL    HW279084   7.141   6.400   2.580
25693SOL     OW79085   6.681   7.358   2.099
25693SOL    HW179086   6.613   7.305   2.144
25693SOL    HW279087   6.698   7.306   2.018
25694SOL     OW79088   5.757   5.871   3.353
25694SOL    HW179089   5.688   5.930   3.386
25694SOL    HW279090   5.755   5.798   3.417
25695SOL     OW79091   7.206   6.944   1.956
25695SOL    HW179092   7.165   7.026   1.927
25695SOL    HW279093   7.147   6.875   1.919
25696SOL     OW79094   6.042   7.328   2.177
25696SOL    HW179095   6.091   7.374   2.246
25696SOL    HW279096   6.113   7.290   2.122
25697SOL     OW79097   6.985   5.706   2.297
25697SOL    HW179098   6.979   5.654   2.215
25697SOL    HW279099   7.080   5.713   2.311
25698SOL     OW79100   5.829   7.378   3.089
25698SOL    HW179101   5.892   7.311   3.119
25698SOL    HW279102   5.809   7.348   2.999
25699SOL     OW79103   6.540   7.289   2.753
25699SOL    HW179104   6.622   7.239   2.766
25699SOL    HW279105   6.495   7.236   2.684
25700SOL     OW79106   5.978   6.285   2.323
25700SOL    HW179107   5.998   6.192   2.348
25700SOL    HW279108   5.882   6.288   2.339
25701SOL     OW79109   7.143   5.838   3.593
25701SOL    HW179110   7.135   5.850   3.690
25701SOL    HW279111   7.077   5.770   3.578
25702SOL     OW79112   6.216   5.714   1.955
25702SOL    HW179113   6.282   5.649   1.982
25702SOL    HW279114   6.165   5.664   1.887
25703SOL     OW79115   6.351   5.859   3.580
25703SOL    HW179116   6.432   5.804   3.572
25703SOL    HW279117   6.334   5.850   3.675
25704SOL     OW79118   6.474   7.122   3.054
25704SOL    HW179119   6.468   7.098   2.960
25704SOL    HW279120   6.536   7.056   3.089
25705SOL     OW79121   6.926   6.183   3.292
25705SOL    HW179122   6.961   6.154   3.379
25705SOL    HW279123   6.977   6.264   3.273
25706SOL     OW79124   6.396   6.994   2.789
25706SOL    HW179125   6.481   6.981   2.743
25706SOL    HW279126   6.332   6.999   2.717
25707SOL     OW79127   6.527   6.113   2.777
25707SOL    HW179128   6.501   6.106   2.683
25707SOL    HW279129   6.555   6.022   2.795
25708SOL     OW79130   6.138   5.636   2.362
25708SOL    HW179131   6.060   5.645   2.420
25708SOL    HW279132   6.129   5.715   2.304
25709SOL     OW79133   7.030   6.758   1.885
25709SOL    HW179134   7.057   6.684   1.943
25709SOL    HW279135   6.943   6.781   1.920
25710SOL     OW79136   5.861   5.632   2.053
25710SOL    HW179137   5.922   5.702   2.025
25710SOL    HW279138   5.923   5.568   2.094
25711SOL     OW79139   6.515   5.839   2.366
25711SOL    HW179140   6.490   5.884   2.284
25711SOL    HW279141   6.612   5.855   2.367
25712SOL     OW79142   6.675   6.266   3.338
25712SOL    HW179143   6.627   6.182   3.340
25712SOL    HW279144   6.768   6.239   3.327
25713SOL     OW79145   6.815   7.168   2.657
25713SOL    HW179146   6.820   7.227   2.580
25713SOL    HW279147   6.896   7.190   2.704
25714SOL     OW79148   6.053   6.761   2.605
25714SOL    HW179149   5.981   6.719   2.656
25714SOL    HW279150   6.022   6.743   2.513
25715SOL     OW79151   6.846   7.398   2.457
25715SOL    HW179152   6.901   7.460   2.404
25715SOL    HW279153   6.809   7.456   2.525
25716SOL     OW79154   6.649   6.112   1.890
25716SOL    HW179155   6.602   6.195   1.870
25716SOL    HW279156   6.722   6.140   1.948
25717SOL     OW79157   5.652   6.143   3.259
25717SOL    HW179158   5.745   6.129   3.236
25717SOL    HW279159   5.656   6.222   3.316
25718SOL     OW79160   6.150   5.814   3.028
25718SOL    HW179161   6.198   5.742   3.071
25718SOL    HW279162   6.061   5.803   3.065
25719SOL     OW79163   6.461   6.055   2.529
25719SOL    HW179164   6.420   6.100   2.455
25719SOL    HW279165   6.478   5.966   2.493
25720SOL     OW79166   6.627   5.646   2.635
25720SOL    HW179167   6.574   5.636   2.556
25720SOL    HW279168   6.603   5.567   2.687
25721SOL     OW79169   7.003   6.765   2.742
25721SOL    HW179170   6.950   6.689   2.771
25721SOL    HW279171   6.995   6.760   2.646
25722SOL     OW79172   7.065   6.175   2.834
25722SOL    HW179173   7.008   6.098   2.846
25722SOL    HW279174   7.124   6.171   2.911
25723SOL     OW79175   7.396   6.398   2.259
25723SOL    HW179176   7.470   6.359   2.309
25723SOL    HW279177   7.391   6.337   2.183
25724SOL     OW79178   6.080   7.011   1.994
25724SOL    HW179179   5.996   6.996   2.040
25724SOL    HW279180   6.070   6.960   1.913
25725SOL     OW79181   7.267   6.888   2.515
25725SOL    HW179182   7.364   6.886   2.519
25725SOL    HW279183   7.243   6.973   2.554
25726SOL     OW79184   6.991   6.185   1.928
25726SOL    HW179185   6.950   6.151   2.010
25726SOL    HW279186   7.077   6.141   1.929
25727SOL     OW79187   6.109   5.825   2.180
25727SOL    HW179188   6.154   5.792   2.100
25727SOL    HW279189   6.074   5.910   2.147
25728SOL     OW79190   7.319   6.810   3.457
25728SOL    HW179191   7.412   6.788   3.447
25728SOL    HW279192   7.317   6.902   3.426
25729SOL     OW79193   6.637   6.933   3.174
25729SOL    HW179194   6.572   6.908   3.241
25729SOL    HW279195   6.721   6.907   3.218
25730SOL     OW79196   7.194   7.192   3.501
25730SOL    HW179197   7.191   7.228   3.411
25730SOL    HW279198   7.276   7.139   3.498
25731SOL     OW79199   6.689   6.804   2.946
25731SOL    HW179200   6.646   6.847   3.022
25731SOL    HW279201   6.666   6.861   2.872
25732SOL     OW79202   7.183   6.671   2.930
25732SOL    HW179203   7.191   6.735   3.004
25732SOL    HW279204   7.136   6.724   2.864
25733SOL     OW79205   6.501   5.701   3.252
25733SOL    HW179206   6.537   5.665   3.169
25733SOL    HW279207   6.582   5.732   3.298
25734SOL     OW79208   6.578   6.702   3.603
25734SOL    HW179209   6.484   6.716   3.616
25734SOL    HW279210   6.581   6.630   3.536
25735SOL     OW79211   6.299   6.645   2.203
25735SOL    HW179212   6.294   6.629   2.299
25735SOL    HW279213   6.373   6.586   2.176
25736SOL     OW79214   6.004   6.394   3.131
25736SOL    HW179215   6.078   6.391   3.195
25736SOL    HW279216   5.964   6.306   3.142
25737SOL     OW79217   6.865   5.971   3.131
25737SOL    HW179218   6.882   6.049   3.189
25737SOL    HW279219   6.775   5.989   3.097
25738SOL     OW79220   5.650   7.146   3.207
25738SOL    HW179221   5.628   7.230   3.164
25738SOL    HW279222   5.747   7.150   3.214
25739SOL     OW79223   5.949   6.712   2.358
25739SOL    HW179224   5.975   6.770   2.285
25739SOL    HW279225   5.941   6.626   2.315
25740SOL     OW79226   6.123   6.131   2.708
25740SOL    HW179227   6.156   6.190   2.636
25740SOL    HW279228   6.182   6.152   2.782
25741SOL     OW79229   6.803   6.916   2.259
25741SOL    HW179230   6.848   6.996   2.290
25741SOL    HW279231   6.714   6.928   2.296
25742SOL     OW79232   6.871   7.043   3.007
25742SOL    HW179233   6.916   7.062   3.092
25742SOL    HW279234   6.824   6.962   3.027
25743SOL     OW79235   7.185   6.202   2.340
25743SOL    HW179236   7.136   6.263   2.396
25743SOL    HW279237   7.225   6.261   2.275
25744SOL     OW79238   5.935   7.093   3.204
25744SOL    HW179239   5.909   7.051   3.120
25744SOL    HW279240   6.026   7.119   3.180
25745SOL     OW79241   6.015   6.322   3.470
25745SOL    HW179242   6.078   6.359   3.406
25745SOL    HW279243   6.049   6.232   3.479
25746SOL     OW79244   7.210   6.370   3.538
25746SOL    HW179245   7.120   6.408   3.536
25746SOL    HW279246   7.254   6.422   3.466
25747SOL     OW79247   6.566   5.700   3.582
25747SOL    HW179248   6.630   5.765   3.612
25747SOL    HW279249   6.625   5.626   3.557
25748SOL     OW79250   6.089   5.600   3.609
25748SOL    HW179251   6.044   5.545   3.543
25748SOL    HW279252   6.025   5.673   3.621
25749SOL     OW79253   6.148   6.471   2.912
25749SOL    HW179254   6.193   6.556   2.921
25749SOL    HW279255   6.109   6.454   3.000
25750SOL     OW79256   6.946   6.446   2.868
25750SOL    HW179257   6.858   6.412   2.848
25750SOL    HW279258   6.996   6.365   2.884
25751SOL     OW79259   6.811   6.096   2.136
25751SOL    HW179260   6.812   6.024   2.202
25751SOL    HW279261   6.750   6.158   2.178
25752SOL     OW79262   5.883   5.783   3.118
25752SOL    HW179263   5.827   5.809   3.194
25752SOL    HW279264   5.861   5.688   3.110
25753SOL     OW79265   5.626   6.872   3.157
25753SOL    HW179266   5.668   6.826   3.232
25753SOL    HW279267   5.630   6.965   3.182
25754SOL     OW79268   6.294   6.215   2.902
25754SOL    HW179269   6.382   6.193   2.867
25754SOL    HW279270   6.283   6.310   2.887
25755SOL     OW79271   7.351   6.541   3.709
25755SOL    HW179272   7.304   6.481   3.649
25755SOL    HW279273   7.289   6.545   3.784
25756SOL     OW79274   5.878   5.649   2.473
25756SOL    HW179275   5.858   5.741   2.500
25756SOL    HW279276   5.888   5.605   2.560
25757SOL     OW79277   7.180   5.968   2.207
25757SOL    HW179278   7.215   5.896   2.262
25757SOL    HW279279   7.180   6.045   2.268
25758SOL     OW79280   6.643   6.344   2.830
25758SOL    HW179281   6.625   6.356   2.925
25758SOL    HW279282   6.610   6.253   2.817
25759SOL     OW79283   6.556   7.157   3.567
25759SOL    HW179284   6.559   7.205   3.482
25759SOL    HW279285   6.605   7.074   3.544
25760SOL     OW79286   7.437   7.085   3.461
25760SOL    HW179287   7.461   7.105   3.368
25760SOL    HW279288   7.521   7.100   3.507
25761SOL     OW79289   5.963   6.517   3.642
25761SOL    HW179290   6.017   6.497   3.720
25761SOL    HW279291   5.973   6.434   3.591
25762SOL     OW79292   7.091   5.841   1.990
25762SOL    HW179293   7.013   5.798   2.028
25762SOL    HW279294   7.129   5.889   2.067
25763SOL     OW79295   6.867   6.420   1.885
25763SOL    HW179296   6.921   6.339   1.894
25763SOL    HW279297   6.891   6.447   1.793
25764SOL     OW79298   6.653   6.950   2.710
25764SOL    HW179299   6.672   6.873   2.653
25764SOL    HW279300   6.726   7.011   2.693
25765SOL     OW79301   5.873   6.394   2.859
25765SOL    HW179302   5.969   6.410   2.856
25765SOL    HW279303   5.871   6.299   2.880
25766SOL     OW79304   5.912   6.122   2.867
25766SOL    HW179305   5.886   6.029   2.856
25766SOL    HW279306   5.980   6.133   2.797
25767SOL     OW79307   6.752   5.959   3.561
25767SOL    HW179308   6.705   6.015   3.626
25767SOL    HW279309   6.839   6.004   3.558
25768SOL     OW79310   6.751   5.801   3.343
25768SOL    HW179311   6.753   5.858   3.423
25768SOL    HW279312   6.797   5.854   3.277
25769SOL     OW79313   5.586   6.906   2.043
25769SOL    HW179314   5.493   6.917   2.013
25769SOL    HW279315   5.584   6.818   2.085
25770SOL     OW79316   5.685   7.369   2.809
25770SOL    HW179317   5.656   7.301   2.744
25770SOL    HW279318   5.774   7.391   2.774
25771SOL     OW79319   6.067   7.181   2.795
25771SOL    HW179320   6.140   7.240   2.823
25771SOL    HW279321   6.114   7.117   2.739
25772SOL     OW79322   6.561   6.356   3.093
25772SOL    HW179323   6.622   6.333   3.165
25772SOL    HW279324   6.479   6.318   3.127
25773SOL     OW79325   5.606   6.112   2.964
25773SOL    HW179326   5.685   6.096   2.911
25773SOL    HW279327   5.644   6.126   3.052
25774SOL     OW79328   5.784   6.096   3.554
25774SOL    HW179329   5.851   6.066   3.491
25774SOL    HW279330   5.744   6.173   3.511
25775SOL     OW79331   6.971   6.511   3.508
25775SOL    HW179332   6.999   6.604   3.511
25775SOL    HW279333   6.973   6.491   3.413
25776SOL     OW79334   6.387   6.157   2.242
25776SOL    HW179335   6.402   6.092   2.171
25776SOL    HW279336   6.310   6.206   2.208
25777SOL     OW79337   7.224   6.196   3.059
25777SOL    HW179338   7.208   6.128   3.126
25777SOL    HW279339   7.312   6.171   3.025
25778SOL     OW79340   5.843   7.127   3.586
25778SOL    HW179341   5.809   7.186   3.654
25778SOL    HW279342   5.842   7.040   3.629
25779SOL     OW79343   6.272   6.060   3.130
25779SOL    HW179344   6.219   5.983   3.104
25779SOL    HW279345   6.268   6.118   3.052
25780SOL     OW79346   6.500   7.284   3.330
25780SOL    HW179347   6.523   7.244   3.245
25780SOL    HW279348   6.531   7.375   3.321
25781SOL     OW79349   6.032   6.055   2.062
25781SOL    HW179350   6.098   6.126   2.063
25781SOL    HW279351   5.950   6.107   2.052
25782SOL     OW79352   5.761   6.711   3.337
25782SOL    HW179353   5.737   6.656   3.415
25782SOL    HW279354   5.756   6.648   3.261
25783SOL     OW79355   6.902   6.624   3.087
25783SOL    HW179356   6.929   6.572   3.009
25783SOL    HW279357   6.836   6.684   3.049
25784SOL     OW79358   6.891   6.448   2.152
25784SOL    HW179359   6.809   6.412   2.189
25784SOL    HW279360   6.877   6.441   2.056
25785SOL     OW79361   7.340   7.335   2.988
25785SOL    HW179362   7.418   7.352   2.931
25785SOL    HW279363   7.327   7.239   2.971
25786SOL     OW79364   6.825   7.313   2.974
25786SOL    HW179365   6.916   7.333   2.948
25786SOL    HW279366   6.829   7.217   2.988
25787SOL     OW79367   5.685   6.833   2.892
25787SOL    HW179368   5.650   6.845   2.982
25787SOL    HW279369   5.613   6.785   2.848
25788SOL     OW79370   6.288   7.231   3.594
25788SOL    HW179371   6.302   7.313   3.544
25788SOL    HW279372   6.379   7.195   3.596
25789SOL     OW79373   7.266   5.723   2.354
25789SOL    HW179374   7.344   5.712   2.299
25789SOL    HW279375   7.267   5.643   2.409
25790SOL     OW79376   6.941   7.159   2.333
25790SOL    HW179377   7.007   7.179   2.264
25790SOL    HW279378   6.909   7.248   2.358
25791SOL     OW79379   5.750   7.378   3.687
25791SOL    HW179380   5.695   7.315   3.737
25791SOL    HW279381   5.786   7.430   3.761
25792SOL     OW79382   6.841   6.503   2.520
25792SOL    HW179383   6.922   6.451   2.538
25792SOL    HW279384   6.879   6.584   2.479
25793SOL     OW79385   6.390   6.846   3.302
25793SOL    HW179386   6.358   6.907   3.370
25793SOL    HW279387   6.328   6.864   3.229
25794SOL     OW79388   6.255   7.207   2.020
25794SOL    HW179389   6.271   7.214   1.924
25794SOL    HW279390   6.200   7.125   2.023
25795SOL     OW79391   7.205   7.311   3.250
25795SOL    HW179392   7.254   7.318   3.166
25795SOL    HW279393   7.203   7.403   3.282
25796SOL     OW79394   7.430   5.756   2.832
25796SOL    HW179395   7.448   5.668   2.795
25796SOL    HW279396   7.340   5.775   2.799
25797SOL     OW79397   5.835   5.901   2.564
25797SOL    HW179398   5.752   5.950   2.549
25797SOL    HW279399   5.849   5.912   2.659
25798SOL     OW79400   6.772   7.213   1.887
25798SOL    HW179401   6.781   7.118   1.906
25798SOL    HW279402   6.713   7.217   1.810
25799SOL     OW79403   6.410   6.586   3.225
25799SOL    HW179404   6.459   6.588   3.142
25799SOL    HW279405   6.417   6.678   3.256
25800SOL     OW79406   6.496   6.490   2.129
25800SOL    HW179407   6.570   6.531   2.078
25800SOL    HW279408   6.538   6.413   2.169
25801SOL     OW79409   7.125   7.200   1.889
25801SOL    HW179410   7.029   7.216   1.887
25801SOL    HW279411   7.148   7.203   1.793
25802SOL     OW79412   5.966   6.866   3.392
25802SOL    HW179413   5.953   6.934   3.325
25802SOL    HW279414   5.889   6.808   3.372
25803SOL     OW79415   6.632   6.704   2.579
25803SOL    HW179416   6.561   6.650   2.618
25803SOL    HW279417   6.695   6.636   2.552
25804SOL     OW79418   6.623   5.811   2.851
25804SOL    HW179419   6.617   5.764   2.766
25804SOL    HW279420   6.618   5.736   2.914
25805SOL     OW79421   6.205   7.068   2.359
25805SOL    HW179422   6.254   7.023   2.288
25805SOL    HW279423   6.132   7.109   2.311
25806SOL     OW79424   7.297   5.964   3.236
25806SOL    HW179425   7.361   6.038   3.232
25806SOL    HW279426   7.343   5.895   3.184
25807SOL     OW79427   5.835   6.969   2.134
25807SOL    HW179428   5.739   6.951   2.129
25807SOL    HW279429   5.845   6.986   2.230
25808SOL     OW79430   5.711   6.623   3.584
25808SOL    HW179431   5.630   6.595   3.632
25808SOL    HW279432   5.779   6.568   3.627
25809SOL     OW79433   6.244   5.773   3.341
25809SOL    HW179434   6.334   5.753   3.309
25809SOL    HW279435   6.264   5.804   3.432
25810SOL     OW79436   5.693   5.925   1.872
25810SOL    HW179437   5.597   5.931   1.864
25810SOL    HW279438   5.723   6.000   1.816
25811SOL     OW79439   7.037   6.444   3.251
25811SOL    HW179440   6.992   6.511   3.196
25811SOL    HW279441   7.131   6.467   3.238
25812SOL     OW79442   5.631   5.747   2.154
25812SOL    HW179443   5.633   5.836   2.116
25812SOL    HW279444   5.715   5.709   2.122
25813SOL     OW79445   6.792   6.938   1.979
25813SOL    HW179446   6.710   6.886   1.980
25813SOL    HW279447   6.815   6.940   2.074
25814SOL     OW79448   6.210   6.405   3.297
25814SOL    HW179449   6.270   6.480   3.281
25814SOL    HW279450   6.276   6.332   3.301
25815SOL     OW79451   7.092   7.358   2.824
25815SOL    HW179452   7.128   7.398   2.744
25815SOL    HW279453   7.172   7.341   2.876
25816SOL     OW79454   6.327   6.134   3.546
25816SOL    HW179455   6.356   6.195   3.616
25816SOL    HW279456   6.336   6.046   3.585
25817SOL     OW79457   7.049   6.774   3.485
25817SOL    HW179458   7.048   6.774   3.583
25817SOL    HW279459   7.145   6.788   3.466
25818SOL     OW79460   5.965   7.339   3.455
25818SOL    HW179461   5.881   7.370   3.416
25818SOL    HW279462   5.940   7.248   3.479
25819SOL     OW79463   7.294   6.468   3.098
25819SOL    HW179464   7.265   6.381   3.066
25819SOL    HW279465   7.248   6.531   3.040
25820SOL     OW79466   6.781   5.904   2.341
25820SOL    HW179467   6.853   5.840   2.322
25820SOL    HW279468   6.822   5.959   2.411
25821SOL     OW79469   6.188   6.327   2.512
25821SOL    HW179470   6.208   6.421   2.510
25821SOL    HW279471   6.119   6.318   2.444
25822SOL     OW79472   7.371   5.957   3.492
25822SOL    HW179473   7.342   5.967   3.400
25822SOL    HW279474   7.295   5.911   3.532
25823SOL     OW79475   7.321   6.536   3.362
25823SOL    HW179476   7.316   6.633   3.370
25823SOL    HW279477   7.332   6.523   3.266
25824SOL     OW79478   6.437   6.950   1.895
25824SOL    HW179479   6.418   6.968   1.989
25824SOL    HW279480   6.465   7.035   1.860
25825SOL     OW79481   6.255   7.373   2.823
25825SOL    HW179482   6.238   7.464   2.795
25825SOL    HW279483   6.347   7.359   2.796
25826SOL     OW79484   6.462   6.525   2.697
25826SOL    HW179485   6.512   6.457   2.744
25826SOL    HW279486   6.446   6.591   2.766
25827SOL     OW79487   6.688   6.596   1.960
25827SOL    HW179488   6.656   6.638   1.878
25827SOL    HW279489   6.752   6.531   1.925
25828SOL     OW79490   7.446   7.147   2.696
25828SOL    HW179491   7.351   7.144   2.680
25828SOL    HW279492   7.458   7.077   2.762
25829SOL     OW79493   5.834   6.887   3.722
25829SOL    HW179494   5.751   6.841   3.702
25829SOL    HW279495   5.823   6.903   3.817
25830SOL     OW79496   5.675   6.826   2.530
25830SOL    HW179497   5.705   6.781   2.609
25830SOL    HW279498   5.741   6.797   2.465
25831SOL     OW79499   6.219   6.986   3.469
25831SOL    HW179500   6.130   6.990   3.433
25831SOL    HW279501   6.228   7.072   3.515
25832SOL     OW79502   7.410   5.764   3.091
25832SOL    HW179503   7.418   5.669   3.110
25832SOL    HW279504   7.416   5.765   2.993
25833SOL     OW79505   6.019   6.023   2.394
25833SOL    HW179506   6.070   5.957   2.346
25833SOL    HW279507   5.974   5.973   2.464
25834SOL     OW79508   7.306   7.076   2.942
25834SOL    HW179509   7.224   7.045   2.901
25834SOL    HW279510   7.300   7.024   3.025
25835SOL     OW79511   5.912   6.128   3.147
25835SOL    HW179512   5.971   6.077   3.207
25835SOL    HW279513   5.935   6.093   3.060
25836SOL     OW79514   6.402   7.181   2.549
25836SOL    HW179515   6.404   7.205   2.456
25836SOL    HW279516   6.320   7.131   2.556
25837SOL     OW79517   7.019   5.817   2.985
25837SOL    HW179518   7.051   5.742   3.036
25837SOL    HW279519   6.966   5.868   3.051
25838SOL     OW79520   6.600   5.591   3.024
25838SOL    HW179521   6.548   5.511   3.005
25838SOL    HW279522   6.691   5.554   3.017
25839SOL     OW79523   6.370   6.930   2.171
25839SOL    HW179524   6.342   6.837   2.165
25839SOL    HW279525   6.440   6.926   2.238
25840SOL     OW79526   6.189   7.148   3.128
25840SOL    HW179527   6.190   7.240   3.161
25840SOL    HW279528   6.282   7.140   3.102
25841SOL     OW79529   6.905   5.607   2.048
25841SOL    HW179530   6.910   5.562   1.963
25841SOL    HW279531   6.815   5.582   2.079
25842SOL     OW79532   6.883   6.057   2.539
25842SOL    HW179533   6.822   6.133   2.543
25842SOL    HW279534   6.869   6.015   2.626
25843SOL     OW79535   7.185   5.791   2.734
25843SOL    HW179536   7.108   5.808   2.790
25843SOL    HW279537   7.189   5.871   2.678
25844SOL     OW79538   5.631   6.662   2.175
25844SOL    HW179539   5.725   6.655   2.154
25844SOL    HW279540   5.611   6.568   2.195
25845SOL     OW79541   6.464   7.233   2.191
25845SOL    HW179542   6.389   7.219   2.131
25845SOL    HW279543   6.443   7.316   2.238
25846SOL     OW79544   5.799   6.264   3.851
25846SOL    HW179545   5.717   6.222   3.881
25846SOL    HW279546   5.830   6.204   3.781
25847SOL     OW79547   6.176   6.881   4.929
25847SOL    HW179548   6.085   6.864   4.901
25847SOL    HW279549   6.173   6.978   4.944
25848SOL     OW79550   7.136   7.117   4.433
25848SOL    HW179551   7.096   7.091   4.519
25848SOL    HW279552   7.065   7.102   4.369
25849SOL     OW79553   7.351   6.196   3.952
25849SOL    HW179554   7.336   6.184   3.856
25849SOL    HW279555   7.316   6.112   3.990
25850SOL     OW79556   6.378   6.765   4.802
25850SOL    HW179557   6.300   6.795   4.853
25850SOL    HW279558   6.385   6.836   4.736
25851SOL     OW79559   6.285   6.632   4.373
25851SOL    HW179560   6.337   6.599   4.450
25851SOL    HW279561   6.202   6.656   4.417
25852SOL     OW79562   5.898   7.017   4.797
25852SOL    HW179563   5.832   6.962   4.752
25852SOL    HW279564   5.945   7.063   4.725
25853SOL     OW79565   7.056   7.088   5.103
25853SOL    HW179566   7.108   7.171   5.107
25853SOL    HW279567   6.979   7.108   5.159
25854SOL     OW79568   7.216   6.036   4.477
25854SOL    HW179569   7.167   6.096   4.419
25854SOL    HW279570   7.270   6.096   4.534
25855SOL     OW79571   5.799   7.292   4.197
25855SOL    HW179572   5.823   7.369   4.252
25855SOL    HW279573   5.867   7.294   4.127
25856SOL     OW79574   6.703   6.936   5.384
25856SOL    HW179575   6.738   6.937   5.475
25856SOL    HW279576   6.668   6.847   5.378
25857SOL     OW79577   5.832   7.019   4.261
25857SOL    HW179578   5.822   7.116   4.268
25857SOL    HW279579   5.761   6.987   4.319
25858SOL     OW79580   5.847   6.669   4.630
25858SOL    HW179581   5.852   6.591   4.688
25858SOL    HW279582   5.789   6.727   4.682
25859SOL     OW79583   6.187   7.367   5.145
25859SOL    HW179584   6.108   7.347   5.197
25859SOL    HW279585   6.207   7.458   5.173
25860SOL     OW79586   6.170   6.578   3.831
25860SOL    HW179587   6.223   6.629   3.767
25860SOL    HW279588   6.206   6.610   3.916
25861SOL     OW79589   5.689   6.251   4.289
25861SOL    HW179590   5.693   6.160   4.319
25861SOL    HW279591   5.697   6.300   4.373
25862SOL     OW79592   7.439   7.331   4.065
25862SOL    HW179593   7.507   7.307   4.131
25862SOL    HW279594   7.460   7.425   4.052
25863SOL     OW79595   5.645   7.182   3.838
25863SOL    HW179596   5.631   7.089   3.861
25863SOL    HW279597   5.607   7.228   3.916
25864SOL     OW79598   7.306   6.560   4.362
25864SOL    HW179599   7.358   6.479   4.353
25864SOL    HW279600   7.235   6.545   4.299
25865SOL     OW79601   7.222   6.724   4.140
25865SOL    HW179602   7.316   6.705   4.122
25865SOL    HW279603   7.230   6.774   4.223
25866SOL     OW79604   6.176   6.994   4.477
25866SOL    HW179605   6.141   6.904   4.495
25866SOL    HW279606   6.174   6.993   4.380
25867SOL     OW79607   6.872   6.821   5.142
25867SOL    HW179608   6.897   6.760   5.071
25867SOL    HW279609   6.939   6.807   5.211
25868SOL     OW79610   6.382   5.618   4.198
25868SOL    HW179611   6.394   5.716   4.201
25868SOL    HW279612   6.302   5.608   4.251
25869SOL     OW79613   5.798   6.530   4.927
25869SOL    HW179614   5.878   6.498   4.971
25869SOL    HW279615   5.749   6.572   4.999
25870SOL     OW79616   7.130   6.544   3.906
25870SOL    HW179617   7.046   6.507   3.939
25870SOL    HW279618   7.162   6.590   3.986
25871SOL     OW79619   6.749   7.401   5.335
25871SOL    HW179620   6.755   7.459   5.258
25871SOL    HW279621   6.775   7.315   5.297
25872SOL     OW79622   5.948   5.831   5.526
25872SOL    HW179623   5.978   5.919   5.496
25872SOL    HW279624   5.869   5.854   5.578
25873SOL     OW79625   7.063   7.013   4.693
25873SOL    HW179626   6.996   7.029   4.762
25873SOL    HW279627   7.039   6.922   4.665
25874SOL     OW79628   7.221   7.339   4.302
25874SOL    HW179629   7.212   7.293   4.217
25874SOL    HW279630   7.211   7.265   4.365
25875SOL     OW79631   6.119   6.327   3.955
25875SOL    HW179632   6.187   6.387   3.923
25875SOL    HW279633   6.145   6.308   4.045
25876SOL     OW79634   7.165   7.229   4.033
25876SOL    HW179635   7.261   7.242   4.035
25876SOL    HW279636   7.152   7.216   3.937
25877SOL     OW79637   5.688   6.414   4.510
25877SOL    HW179638   5.766   6.402   4.567
25877SOL    HW279639   5.643   6.492   4.549
25878SOL     OW79640   5.685   7.453   5.287
25878SOL    HW179641   5.706   7.439   5.382
25878SOL    HW279642   5.624   7.379   5.274
25879SOL     OW79643   6.456   5.894   3.869
25879SOL    HW179644   6.433   5.961   3.935
25879SOL    HW279645   6.509   5.834   3.923
25880SOL     OW79646   7.343   6.197   5.563
25880SOL    HW179647   7.291   6.264   5.513
25880SOL    HW279648   7.358   6.131   5.494
25881SOL     OW79649   6.968   6.789   4.263
25881SOL    HW179650   7.046   6.765   4.211
25881SOL    HW279651   6.914   6.838   4.199
25882SOL     OW79652   6.562   7.048   4.203
25882SOL    HW179653   6.521   7.115   4.145
25882SOL    HW279654   6.573   7.094   4.287
25883SOL     OW79655   5.929   7.397   4.572
25883SOL    HW179656   5.968   7.311   4.597
25883SOL    HW279657   5.998   7.459   4.601
25884SOL     OW79658   7.385   6.687   4.593
25884SOL    HW179659   7.352   6.642   4.513
25884SOL    HW279660   7.323   6.657   4.661
25885SOL     OW79661   6.815   7.154   5.224
25885SOL    HW179662   6.798   7.084   5.288
25885SOL    HW279663   6.763   7.122   5.148
25886SOL     OW79664   5.892   6.523   3.951
25886SOL    HW179665   5.987   6.506   3.941
25886SOL    HW279666   5.853   6.439   3.921
25887SOL     OW79667   6.672   7.351   3.962
25887SOL    HW179668   6.598   7.302   4.002
25887SOL    HW279669   6.691   7.299   3.882
25888SOL     OW79670   7.210   6.945   3.831
25888SOL    HW179671   7.189   7.030   3.790
25888SOL    HW279672   7.159   6.880   3.780
25889SOL     OW79673   6.043   7.321   4.040
25889SOL    HW179674   6.091   7.364   4.114
25889SOL    HW279675   6.116   7.287   3.986
25890SOL     OW79676   6.976   5.679   4.154
25890SOL    HW179677   6.977   5.638   4.065
25890SOL    HW279678   7.070   5.682   4.178
25891SOL     OW79679   5.837   7.366   4.947
25891SOL    HW179680   5.890   7.295   4.987
25891SOL    HW279681   5.794   7.321   4.874
25892SOL     OW79682   6.555   7.286   4.605
25892SOL    HW179683   6.596   7.213   4.654
25892SOL    HW279684   6.508   7.239   4.533
25893SOL     OW79685   6.207   5.730   3.804
25893SOL    HW179686   6.286   5.686   3.840
25893SOL    HW279687   6.172   5.664   3.740
25894SOL     OW79688   6.477   7.134   4.912
25894SOL    HW179689   6.460   7.080   4.833
25894SOL    HW279690   6.540   7.079   4.962
25895SOL     OW79691   6.953   6.280   5.226
25895SOL    HW179692   6.948   6.183   5.217
25895SOL    HW279693   7.037   6.299   5.182
25896SOL     OW79694   6.408   6.990   4.656
25896SOL    HW179695   6.494   6.979   4.610
25896SOL    HW279696   6.346   6.997   4.582
25897SOL     OW79697   7.037   6.750   3.742
25897SOL    HW179698   7.064   6.672   3.794
25897SOL    HW279699   6.961   6.784   3.792
25898SOL     OW79700   5.891   5.596   3.888
25898SOL    HW179701   5.956   5.666   3.896
25898SOL    HW279702   5.881   5.571   3.982
25899SOL     OW79703   6.835   7.139   4.486
25899SOL    HW179704   6.823   7.206   4.417
25899SOL    HW279705   6.899   7.182   4.545
25900SOL     OW79706   6.058   6.752   4.476
25900SOL    HW179707   5.987   6.714   4.532
25900SOL    HW279708   6.027   6.724   4.387
25901SOL     OW79709   6.845   7.388   4.321
25901SOL    HW179710   6.902   7.446   4.265
25901SOL    HW279711   6.817   7.449   4.390
25902SOL     OW79712   6.669   6.147   3.734
25902SOL    HW179713   6.581   6.181   3.755
25902SOL    HW279714   6.708   6.127   3.820
25903SOL     OW79715   6.622   5.612   4.469
25903SOL    HW179716   6.544   5.631   4.416
25903SOL    HW279717   6.587   5.549   4.535
25904SOL     OW79718   7.012   6.763   4.613
25904SOL    HW179719   6.933   6.720   4.577
25904SOL    HW279720   7.075   6.753   4.541
25905SOL     OW79721   7.419   6.411   4.115
25905SOL    HW179722   7.475   6.356   4.172
25905SOL    HW279723   7.392   6.346   4.048
25906SOL     OW79724   6.072   6.987   3.858
25906SOL    HW179725   6.022   6.952   3.934
25906SOL    HW279726   5.999   7.015   3.803
25907SOL     OW79727   7.255   6.877   4.374
25907SOL    HW179728   7.353   6.878   4.378
25907SOL    HW279729   7.230   6.968   4.397
25908SOL     OW79730   7.010   6.172   3.796
25908SOL    HW179731   6.938   6.155   3.861
25908SOL    HW279732   7.073   6.105   3.824
25909SOL     OW79733   6.134   5.805   4.046
25909SOL    HW179734   6.159   5.787   3.954
25909SOL    HW279735   6.168   5.894   4.059
25910SOL     OW79736   7.326   6.824   5.298
25910SOL    HW179737   7.403   6.767   5.311
25910SOL    HW279738   7.361   6.912   5.324
25911SOL     OW79739   6.642   6.984   5.087
25911SOL    HW179740   6.561   6.938   5.116
25911SOL    HW279741   6.711   6.920   5.113
25912SOL     OW79742   7.205   7.228   5.369
25912SOL    HW179743   7.202   7.262   5.277
25912SOL    HW279744   7.278   7.164   5.364
25913SOL     OW79745   6.682   6.827   4.811
25913SOL    HW179746   6.595   6.813   4.849
25913SOL    HW279747   6.663   6.871   4.727
25914SOL     OW79748   7.206   6.699   4.804
25914SOL    HW179749   7.208   6.756   4.884
25914SOL    HW279750   7.132   6.738   4.756
25915SOL     OW79751   6.299   6.641   4.068
25915SOL    HW179752   6.284   6.630   4.164
25915SOL    HW279753   6.375   6.580   4.053
25916SOL     OW79754   5.662   7.134   5.032
25916SOL    HW179755   5.649   7.229   5.040
25916SOL    HW279756   5.757   7.124   5.050
25917SOL     OW79757   5.973   6.688   4.230
25917SOL    HW179758   5.970   6.749   4.155
25917SOL    HW279759   5.941   6.606   4.191
25918SOL     OW79760   6.804   6.940   4.098
25918SOL    HW179761   6.850   7.013   4.144
25918SOL    HW279762   6.713   6.952   4.132
25919SOL     OW79763   6.884   7.045   4.891
25919SOL    HW179764   6.938   7.035   4.972
25919SOL    HW279765   6.828   6.966   4.895
25920SOL     OW79766   7.192   6.204   4.197
25920SOL    HW179767   7.124   6.262   4.237
25920SOL    HW279768   7.216   6.254   4.119
25921SOL     OW79769   5.935   7.134   5.030
25921SOL    HW179770   5.914   7.079   4.951
25921SOL    HW279771   6.032   7.136   5.025
25922SOL     OW79772   7.220   6.367   5.403
25922SOL    HW179773   7.129   6.403   5.397
25922SOL    HW279774   7.261   6.407   5.324
25923SOL     OW79775   6.115   5.625   5.476
25923SOL    HW179776   6.055   5.566   5.427
25923SOL    HW279777   6.053   5.698   5.499
25924SOL     OW79778   6.118   6.498   4.800
25924SOL    HW179779   6.197   6.545   4.773
25924SOL    HW279780   6.145   6.462   4.886
25925SOL     OW79781   6.814   6.111   3.969
25925SOL    HW179782   6.834   6.029   4.019
25925SOL    HW279783   6.743   6.144   4.025
25926SOL     OW79784   7.343   6.561   5.573
25926SOL    HW179785   7.306   6.501   5.506
25926SOL    HW279786   7.272   6.562   5.640
25927SOL     OW79787   7.192   5.961   4.075
25927SOL    HW179788   7.216   5.887   4.134
25927SOL    HW279789   7.183   6.035   4.138
25928SOL     OW79790   6.561   7.162   5.416
25928SOL    HW179791   6.549   7.215   5.334
25928SOL    HW279792   6.595   7.077   5.382
25929SOL     OW79793   7.437   7.081   5.332
25929SOL    HW179794   7.457   7.107   5.241
25929SOL    HW279795   7.518   7.108   5.379
25930SOL     OW79796   7.078   5.864   3.851
25930SOL    HW179797   7.013   5.797   3.881
25930SOL    HW279798   7.120   5.892   3.935
25931SOL     OW79799   6.871   6.432   3.739
25931SOL    HW179800   6.905   6.341   3.740
25931SOL    HW279801   6.904   6.461   3.651
25932SOL     OW79802   6.657   6.952   4.566
25932SOL    HW179803   6.655   6.878   4.502
25932SOL    HW279804   6.727   7.009   4.530
25933SOL     OW79805   5.892   6.387   4.694
25933SOL    HW179806   5.977   6.428   4.723
25933SOL    HW279807   5.873   6.328   4.768
25934SOL     OW79808   5.597   6.905   3.907
25934SOL    HW179809   5.503   6.921   3.880
25934SOL    HW279810   5.591   6.815   3.945
25935SOL     OW79811   5.678   7.369   4.666
25935SOL    HW179812   5.649   7.288   4.619
25935SOL    HW279813   5.769   7.381   4.632
25936SOL     OW79814   6.062   7.166   4.647
25936SOL    HW179815   6.138   7.222   4.673
25936SOL    HW279816   6.104   7.100   4.589
25937SOL     OW79817   7.000   6.523   5.374
25937SOL    HW179818   7.015   6.617   5.353
25937SOL    HW279819   6.939   6.492   5.305
25938SOL     OW79820   6.504   7.299   5.186
25938SOL    HW179821   6.501   7.271   5.094
25938SOL    HW279822   6.501   7.396   5.181
25939SOL     OW79823   6.006   6.063   3.867
25939SOL    HW179824   6.087   6.108   3.894
25939SOL    HW279825   5.940   6.108   3.920
25940SOL     OW79826   6.886   6.665   4.928
25940SOL    HW179827   6.907   6.580   4.888
25940SOL    HW279828   6.804   6.692   4.884
25941SOL     OW79829   6.893   6.456   4.015
25941SOL    HW179830   6.876   6.383   4.076
25941SOL    HW279831   6.870   6.422   3.927
25942SOL     OW79832   7.334   7.335   4.855
25942SOL    HW179833   7.410   7.362   4.800
25942SOL    HW279834   7.332   7.238   4.840
25943SOL     OW79835   6.831   7.310   4.840
25943SOL    HW179836   6.919   7.327   4.802
25943SOL    HW279837   6.836   7.215   4.859
25944SOL     OW79838   5.677   6.841   4.768
25944SOL    HW179839   5.667   6.839   4.864
25944SOL    HW279840   5.592   6.805   4.738
25945SOL     OW79841   6.276   7.229   5.459
25945SOL    HW179842   6.239   7.317   5.441
25945SOL    HW279843   6.351   7.224   5.399
25946SOL     OW79844   7.266   5.727   4.207
25946SOL    HW179845   7.325   5.690   4.139
25946SOL    HW279846   7.254   5.649   4.265
25947SOL     OW79847   6.942   7.156   4.200
25947SOL    HW179848   7.007   7.176   4.130
25947SOL    HW279849   6.906   7.243   4.220
25948SOL     OW79850   5.739   7.387   5.537
25948SOL    HW179851   5.703   7.304   5.577
25948SOL    HW279852   5.777   7.427   5.616
25949SOL     OW79853   6.839   6.596   4.389
25949SOL    HW179854   6.881   6.515   4.355
25949SOL    HW279855   6.882   6.663   4.333
25950SOL     OW79856   6.398   6.871   5.148
25950SOL    HW179857   6.365   6.866   5.239
25950SOL    HW279858   6.317   6.872   5.095
25951SOL     OW79859   6.238   7.208   3.876
25951SOL    HW179860   6.267   7.213   3.783
25951SOL    HW279861   6.197   7.119   3.877
25952SOL     OW79862   7.210   7.314   5.112
25952SOL    HW179863   7.256   7.326   5.027
25952SOL    HW279864   7.198   7.405   5.144
25953SOL     OW79865   6.773   7.208   3.751
25953SOL    HW179866   6.789   7.114   3.767
25953SOL    HW279867   6.718   7.209   3.670
25954SOL     OW79868   6.506   6.633   5.084
25954SOL    HW179869   6.474   6.636   4.994
25954SOL    HW279870   6.482   6.720   5.121
25955SOL     OW79871   6.499   6.483   4.007
25955SOL    HW179872   6.572   6.518   3.952
25955SOL    HW279873   6.525   6.392   4.022
25956SOL     OW79874   7.147   7.202   3.761
25956SOL    HW179875   7.052   7.220   3.757
25956SOL    HW279876   7.171   7.204   3.665
25957SOL     OW79877   7.193   6.892   4.994
25957SOL    HW179878   7.258   6.880   5.064
25957SOL    HW279879   7.129   6.953   5.037
25958SOL     OW79880   6.613   6.731   4.414
25958SOL    HW179881   6.552   6.674   4.464
25958SOL    HW279882   6.688   6.672   4.395
25959SOL     OW79883   6.223   7.083   4.202
25959SOL    HW179884   6.254   7.023   4.132
25959SOL    HW279885   6.134   7.106   4.174
25960SOL     OW79886   5.840   6.948   4.002
25960SOL    HW179887   5.745   6.931   3.989
25960SOL    HW279888   5.841   6.980   4.095
25961SOL     OW79889   5.688   5.960   3.774
25961SOL    HW179890   5.600   5.935   3.746
25961SOL    HW279891   5.718   6.015   3.699
25962SOL     OW79892   5.663   5.744   4.036
25962SOL    HW179893   5.697   5.810   3.974
25962SOL    HW279894   5.746   5.711   4.079
25963SOL     OW79895   6.796   6.941   3.826
25963SOL    HW179896   6.728   6.874   3.837
25963SOL    HW279897   6.825   6.952   3.918
25964SOL     OW79898   6.283   6.496   5.038
25964SOL    HW179899   6.359   6.545   5.074
25964SOL    HW279900   6.286   6.419   5.098
25965SOL     OW79901   7.089   7.344   4.690
25965SOL    HW179902   7.125   7.391   4.614
25965SOL    HW279903   7.168   7.329   4.744
25966SOL     OW79904   7.054   6.784   5.351
25966SOL    HW179905   7.042   6.776   5.448
25966SOL    HW279906   7.147   6.813   5.345
25967SOL     OW79907   5.953   7.326   5.296
25967SOL    HW179908   5.862   7.357   5.286
25967SOL    HW279909   5.940   7.233   5.322
25968SOL     OW79910   6.833   5.924   4.147
25968SOL    HW179911   6.863   5.834   4.168
25968SOL    HW279912   6.866   5.977   4.222
25969SOL     OW79913   7.318   6.521   5.213
25969SOL    HW179914   7.292   6.613   5.209
25969SOL    HW279915   7.353   6.504   5.125
25970SOL     OW79916   6.406   6.969   3.762
25970SOL    HW179917   6.420   6.959   3.859
25970SOL    HW279918   6.473   7.032   3.734
25971SOL     OW79919   6.238   7.377   4.671
25971SOL    HW179920   6.226   7.472   4.653
25971SOL    HW279921   6.330   7.361   4.646
25972SOL     OW79922   6.425   6.583   4.600
25972SOL    HW179923   6.490   6.514   4.618
25972SOL    HW279924   6.418   6.629   4.686
25973SOL     OW79925   6.667   6.575   3.824
25973SOL    HW179926   6.647   6.629   3.745
25973SOL    HW279927   6.745   6.524   3.793
25974SOL     OW79928   7.446   7.147   4.558
25974SOL    HW179929   7.353   7.126   4.544
25974SOL    HW279930   7.476   7.074   4.613
25975SOL     OW79931   5.665   6.838   4.392
25975SOL    HW179932   5.654   6.784   4.471
25975SOL    HW279933   5.740   6.795   4.349
25976SOL     OW79934   7.483   5.879   4.820
25976SOL    HW179935   7.486   5.827   4.901
25976SOL    HW279936   7.401   5.850   4.779
25977SOL     OW79937   7.313   7.080   4.815
25977SOL    HW179938   7.230   7.058   4.770
25977SOL    HW279939   7.311   7.015   4.887
25978SOL     OW79940   6.406   7.180   4.406
25978SOL    HW179941   6.400   7.191   4.310
25978SOL    HW279942   6.320   7.139   4.423
25979SOL     OW79943   6.601   5.529   4.884
25979SOL    HW179944   6.536   5.514   4.814
25979SOL    HW279945   6.681   5.490   4.846
25980SOL     OW79946   6.384   6.908   4.031
25980SOL    HW179947   6.357   6.815   4.043
25980SOL    HW279948   6.451   6.919   4.101
25981SOL     OW79949   6.196   7.148   4.983
25981SOL    HW179950   6.191   7.226   5.042
25981SOL    HW279951   6.285   7.159   4.948
25982SOL     OW79952   6.899   5.614   3.883
25982SOL    HW179953   6.930   5.534   3.839
25982SOL    HW279954   6.812   5.584   3.917
25983SOL     OW79955   7.217   5.785   4.588
25983SOL    HW179956   7.134   5.773   4.634
25983SOL    HW279957   7.212   5.875   4.554
25984SOL     OW79958   5.634   6.661   4.038
25984SOL    HW179959   5.723   6.638   4.006
25984SOL    HW279960   5.601   6.572   4.062
25985SOL     OW79961   6.452   7.234   4.047
25985SOL    HW179962   6.371   7.225   3.994
25985SOL    HW279963   6.435   7.314   4.102
25986SOL     OW79964   5.815   6.219   5.724
25986SOL    HW179965   5.766   6.167   5.791
25986SOL    HW279966   5.794   6.170   5.644
25987SOL     OW79967   6.149   6.877   6.792
25987SOL    HW179968   6.069   6.876   6.738
25987SOL    HW279969   6.157   6.970   6.818
25988SOL     OW79970   7.137   7.117   6.290
25988SOL    HW179971   7.091   7.088   6.371
25988SOL    HW279972   7.066   7.122   6.223
25989SOL     OW79973   6.739   6.256   6.309
25989SOL    HW179974   6.702   6.296   6.227
25989SOL    HW279975   6.666   6.269   6.370
25990SOL     OW79976   7.349   6.204   5.834
25990SOL    HW179977   7.345   6.196   5.736
25990SOL    HW279978   7.322   6.115   5.861
25991SOL     OW79979   6.356   6.763   6.667
25991SOL    HW179980   6.275   6.798   6.709
25991SOL    HW279981   6.372   6.828   6.597
25992SOL     OW79982   6.460   6.335   7.381
25992SOL    HW179983   6.435   6.399   7.450
25992SOL    HW279984   6.490   6.392   7.308
25993SOL     OW79985   6.274   6.633   6.256
25993SOL    HW179986   6.331   6.585   6.319
25993SOL    HW279987   6.200   6.663   6.309
25994SOL     OW79988   6.279   6.742   7.393
25994SOL    HW179989   6.325   6.826   7.414
25994SOL    HW279990   6.194   6.774   7.357
25995SOL     OW79991   5.910   7.021   6.643
25995SOL    HW179992   5.859   6.962   6.586
25995SOL    HW279993   5.966   7.069   6.578
25996SOL     OW79994   7.063   7.096   6.959
25996SOL    HW179995   7.118   7.176   6.971
25996SOL    HW279996   6.991   7.111   7.023
25997SOL     OW79997   6.009   5.985   7.087
25997SOL    HW179998   6.081   5.919   7.086
25997SOL    HW279999   5.929   5.931   7.072
25998SOL     OW80000   7.219   6.051   6.336
25998SOL    HW180001   7.129   6.056   6.297
25998SOL    HW280002   7.234   6.144   6.357
25999SOL     OW80003   5.791   7.293   6.060
25999SOL    HW180004   5.824   7.368   6.112
25999SOL    HW280005   5.855   7.291   5.987
26000SOL     OW80006   6.703   6.934   7.246
26000SOL    HW180007   6.757   6.936   7.326
26000SOL    HW280008   6.661   6.847   7.255
26001SOL     OW80009   5.830   7.018   6.127
26001SOL    HW180010   5.808   7.112   6.123
26001SOL    HW280011   5.760   6.980   6.181
26002SOL     OW80012   5.837   6.685   6.518
26002SOL    HW180013   5.869   6.598   6.549
26002SOL    HW280014   5.741   6.673   6.522
26003SOL     OW80015   6.187   7.374   6.990
26003SOL    HW180016   6.115   7.350   7.052
26003SOL    HW280017   6.212   7.462   7.022
26004SOL     OW80018   7.189   5.692   7.077
26004SOL    HW180019   7.173   5.764   7.014
26004SOL    HW280020   7.202   5.740   7.160
26005SOL     OW80021   5.711   6.257   6.140
26005SOL    HW180022   5.695   6.162   6.131
26005SOL    HW280023   5.698   6.274   6.235
26006SOL     OW80024   7.437   7.331   5.937
26006SOL    HW180025   7.508   7.315   6.002
26006SOL    HW280026   7.452   7.425   5.915
26007SOL     OW80027   5.647   7.202   5.702
26007SOL    HW180028   5.649   7.105   5.700
26007SOL    HW280029   5.595   7.221   5.781
26008SOL     OW80030   7.346   6.533   6.213
26008SOL    HW180031   7.380   6.485   6.136
26008SOL    HW280032   7.256   6.554   6.184
26009SOL     OW80033   7.227   6.708   6.018
26009SOL    HW180034   7.319   6.710   5.990
26009SOL    HW280035   7.230   6.764   6.097
26010SOL     OW80036   5.700   6.322   7.178
26010SOL    HW180037   5.772   6.382   7.204
26010SOL    HW280038   5.622   6.380   7.175
26011SOL     OW80039   6.190   6.986   6.327
26011SOL    HW180040   6.144   6.900   6.340
26011SOL    HW280041   6.171   7.002   6.232
26012SOL     OW80042   6.878   6.815   7.011
26012SOL    HW180043   6.901   6.740   6.954
26012SOL    HW280044   6.936   6.801   7.089
26013SOL     OW80045   6.372   5.582   6.152
26013SOL    HW180046   6.423   5.655   6.115
26013SOL    HW280047   6.298   5.575   6.090
26014SOL     OW80048   5.751   6.531   6.834
26014SOL    HW180049   5.842   6.498   6.834
26014SOL    HW280050   5.701   6.457   6.797
26015SOL     OW80051   7.141   6.572   5.790
26015SOL    HW180052   7.070   6.511   5.817
26015SOL    HW280053   7.166   6.610   5.876
26016SOL     OW80054   6.747   7.392   7.193
26016SOL    HW180055   6.756   7.453   7.118
26016SOL    HW280056   6.782   7.309   7.155
26017SOL     OW80057   5.924   5.812   7.371
26017SOL    HW180058   5.962   5.898   7.391
26017SOL    HW280059   5.830   5.826   7.388
26018SOL     OW80060   7.056   7.010   6.547
26018SOL    HW180061   6.991   7.031   6.618
26018SOL    HW280062   7.026   6.921   6.520
26019SOL     OW80063   7.263   7.327   6.193
26019SOL    HW180064   7.240   7.301   6.103
26019SOL    HW280065   7.225   7.254   6.244
26020SOL     OW80066   6.156   6.308   5.830
26020SOL    HW180067   6.183   6.401   5.822
26020SOL    HW280068   6.102   6.309   5.910
26021SOL     OW80069   6.853   5.950   6.518
26021SOL    HW180070   6.767   5.905   6.531
26021SOL    HW280071   6.912   5.900   6.579
26022SOL     OW80072   7.167   7.237   5.899
26022SOL    HW180073   7.261   7.260   5.895
26022SOL    HW280074   7.149   7.211   5.807
26023SOL     OW80075   6.405   6.205   7.041
26023SOL    HW180076   6.374   6.167   7.127
26023SOL    HW280077   6.358   6.147   6.977
26024SOL     OW80078   6.982   6.073   7.251
26024SOL    HW180079   6.986   6.130   7.331
26024SOL    HW280080   7.036   5.996   7.278
26025SOL     OW80081   6.554   6.478   7.170
26025SOL    HW180082   6.593   6.396   7.135
26025SOL    HW280083   6.503   6.510   7.093
26026SOL     OW80084   6.569   5.989   6.810
26026SOL    HW180085   6.475   6.007   6.828
26026SOL    HW280086   6.567   5.944   6.725
26027SOL     OW80087   5.689   6.367   6.381
26027SOL    HW180088   5.767   6.387   6.435
26027SOL    HW280089   5.651   6.453   6.361
26028SOL     OW80090   5.699   7.440   7.158
26028SOL    HW180091   5.711   7.414   7.252
26028SOL    HW280092   5.613   7.400   7.138
26029SOL     OW80093   6.445   5.862   5.786
26029SOL    HW180094   6.393   5.940   5.807
26029SOL    HW280095   6.378   5.801   5.751
26030SOL     OW80096   7.307   6.183   7.423
26030SOL    HW180097   7.269   6.257   7.370
26030SOL    HW280098   7.330   6.121   7.353
26031SOL     OW80099   6.949   6.736   6.135
26031SOL    HW180100   7.025   6.725   6.077
26031SOL    HW280101   6.897   6.803   6.088
26032SOL     OW80102   6.147   5.784   6.471
26032SOL    HW180103   6.158   5.809   6.565
26032SOL    HW280104   6.147   5.869   6.426
26033SOL     OW80105   6.608   7.050   6.079
26033SOL    HW180106   6.541   7.077   6.014
26033SOL    HW280107   6.574   7.084   6.163
26034SOL     OW80108   5.927   7.394   6.445
26034SOL    HW180109   5.973   7.308   6.455
26034SOL    HW280110   6.002   7.456   6.453
26035SOL     OW80111   7.397   6.666   6.475
26035SOL    HW180112   7.360   6.635   6.390
26035SOL    HW280113   7.326   6.645   6.538
26036SOL     OW80114   6.818   7.148   7.084
26036SOL    HW180115   6.793   7.081   7.150
26036SOL    HW280116   6.767   7.117   7.008
26037SOL     OW80117   5.916   6.541   5.860
26037SOL    HW180118   6.007   6.541   5.829
26037SOL    HW280119   5.880   6.460   5.822
26038SOL     OW80120   7.079   6.346   6.294
26038SOL    HW180121   7.023   6.279   6.334
26038SOL    HW280122   7.127   6.382   6.369
26039SOL     OW80123   6.046   6.858   7.311
26039SOL    HW180124   6.003   6.863   7.222
26039SOL    HW280125   5.966   6.868   7.366
26040SOL     OW80126   6.676   7.344   5.820
26040SOL    HW180127   6.606   7.294   5.864
26040SOL    HW280128   6.689   7.294   5.737
26041SOL     OW80129   5.764   5.871   7.075
26041SOL    HW180130   5.691   5.932   7.055
26041SOL    HW280131   5.718   5.795   7.117
26042SOL     OW80132   7.206   6.924   5.683
26042SOL    HW180133   7.163   7.005   5.650
26042SOL    HW280134   7.144   6.854   5.654
26043SOL     OW80135   6.019   7.318   5.908
26043SOL    HW180136   6.078   7.362   5.972
26043SOL    HW280137   6.080   7.273   5.849
26044SOL     OW80138   5.830   7.375   6.808
26044SOL    HW180139   5.886   7.305   6.846
26044SOL    HW280140   5.817   7.345   6.717
26045SOL     OW80141   6.542   7.285   6.457
26045SOL    HW180142   6.623   7.234   6.466
26045SOL    HW280143   6.494   7.235   6.388
26046SOL     OW80144   5.976   6.275   6.057
26046SOL    HW180145   5.987   6.179   6.074
26046SOL    HW280146   5.881   6.286   6.071
26047SOL     OW80147   7.127   5.847   7.311
26047SOL    HW180148   7.125   5.844   7.409
26047SOL    HW280149   7.067   5.774   7.290
26048SOL     OW80150   6.233   5.719   5.699
26048SOL    HW180151   6.209   5.640   5.751
26048SOL    HW280152   6.201   5.694   5.611
26049SOL     OW80153   6.370   5.860   7.343
26049SOL    HW180154   6.446   5.798   7.348
26049SOL    HW280155   6.313   5.827   7.415
26050SOL     OW80156   6.472   7.131   6.772
26050SOL    HW180157   6.464   7.103   6.680
26050SOL    HW280158   6.524   7.060   6.813
26051SOL     OW80159   6.924   6.177   7.007
26051SOL    HW180160   6.960   6.146   7.093
26051SOL    HW280161   6.975   6.258   6.990
26052SOL     OW80162   6.399   6.993   6.509
26052SOL    HW180163   6.485   6.977   6.467
26052SOL    HW280164   6.337   6.989   6.433
26053SOL     OW80165   6.527   6.114   6.485
26053SOL    HW180166   6.493   6.096   6.394
26053SOL    HW280167   6.557   6.025   6.508
26054SOL     OW80168   6.099   5.703   6.160
26054SOL    HW180169   6.008   5.733   6.171
26054SOL    HW280170   6.121   5.729   6.068
26055SOL     OW80171   7.027   6.747   5.612
26055SOL    HW180172   7.056   6.675   5.672
26055SOL    HW280173   6.935   6.759   5.636
26056SOL     OW80174   6.503   5.831   6.077
26056SOL    HW180175   6.485   5.888   6.001
26056SOL    HW280176   6.587   5.791   6.052
26057SOL     OW80177   6.679   6.262   7.071
26057SOL    HW180178   6.618   6.188   7.058
26057SOL    HW280179   6.766   6.226   7.048
26058SOL     OW80180   6.809   7.171   6.384
26058SOL    HW180181   6.809   7.222   6.301
26058SOL    HW280182   6.890   7.201   6.426
26059SOL     OW80183   6.041   6.762   6.329
26059SOL    HW180184   5.961   6.733   6.376
26059SOL    HW280185   6.020   6.739   6.236
26060SOL     OW80186   6.853   7.398   6.192
26060SOL    HW180187   6.904   7.456   6.132
26060SOL    HW280188   6.807   7.462   6.247
26061SOL     OW80189   5.674   6.135   6.989
26061SOL    HW180190   5.761   6.143   6.946
26061SOL    HW280191   5.671   6.213   7.047
26062SOL     OW80192   6.154   5.840   6.742
26062SOL    HW180193   6.199   5.756   6.763
26062SOL    HW280194   6.065   5.823   6.780
26063SOL     OW80195   6.447   6.029   6.253
26063SOL    HW180196   6.447   6.081   6.171
26063SOL    HW280197   6.455   5.939   6.215
26064SOL     OW80198   6.562   5.682   6.368
26064SOL    HW180199   6.616   5.676   6.286
26064SOL    HW280200   6.523   5.594   6.371
26065SOL     OW80201   6.995   6.756   6.466
26065SOL    HW180202   6.919   6.696   6.465
26065SOL    HW280203   7.022   6.752   6.374
26066SOL     OW80204   7.043   6.171   6.604
26066SOL    HW180205   6.977   6.106   6.576
26066SOL    HW280206   7.114   6.117   6.639
26067SOL     OW80207   7.439   6.414   5.974
26067SOL    HW180208   7.486   6.347   6.028
26067SOL    HW280209   7.401   6.354   5.906
26068SOL     OW80210   6.069   7.031   5.738
26068SOL    HW180211   5.983   7.010   5.780
26068SOL    HW280212   6.095   6.943   5.707
26069SOL     OW80213   7.251   6.867   6.244
26069SOL    HW180214   7.346   6.883   6.235
26069SOL    HW280215   7.214   6.956   6.257
26070SOL     OW80216   6.103   5.844   5.908
26070SOL    HW180217   6.137   5.784   5.839
26070SOL    HW280218   6.075   5.920   5.853
26071SOL     OW80219   7.315   6.817   7.159
26071SOL    HW180220   7.402   6.773   7.163
26071SOL    HW280221   7.340   6.910   7.170
26072SOL     OW80222   6.653   6.967   6.942
26072SOL    HW180223   6.576   6.921   6.978
26072SOL    HW280224   6.726   6.912   6.976
26073SOL     OW80225   7.192   7.197   7.223
26073SOL    HW180226   7.196   7.239   7.135
26073SOL    HW280227   7.270   7.139   7.221
26074SOL     OW80228   6.710   6.819   6.684
26074SOL    HW180229   6.630   6.825   6.737
26074SOL    HW280230   6.680   6.851   6.597
26075SOL     OW80231   7.194   6.688   6.667
26075SOL    HW180232   7.197   6.751   6.741
26075SOL    HW280233   7.130   6.730   6.607
26076SOL     OW80234   6.494   5.697   6.962
26076SOL    HW180235   6.527   5.664   6.877
26076SOL    HW280236   6.574   5.730   7.005
26077SOL     OW80237   6.586   6.703   7.332
26077SOL    HW180238   6.492   6.725   7.346
26077SOL    HW280239   6.580   6.628   7.270
26078SOL     OW80240   5.998   6.401   6.854
26078SOL    HW180241   6.077   6.396   6.912
26078SOL    HW280242   5.968   6.308   6.856
26079SOL     OW80243   6.857   5.953   6.867
26079SOL    HW180244   6.878   6.038   6.912
26079SOL    HW280245   6.766   5.967   6.834
26080SOL     OW80246   5.659   7.148   6.921
26080SOL    HW180247   5.638   7.239   6.895
26080SOL    HW280248   5.757   7.144   6.913
26081SOL     OW80249   5.937   6.700   6.082
26081SOL    HW180250   5.948   6.766   6.013
26081SOL    HW280251   5.928   6.620   6.026
26082SOL     OW80252   6.138   6.137   6.447
26082SOL    HW180253   6.159   6.197   6.371
26082SOL    HW280254   6.213   6.151   6.505
26083SOL     OW80255   6.830   6.926   5.983
26083SOL    HW180256   6.877   7.006   6.014
26083SOL    HW280257   6.739   6.947   6.012
26084SOL     OW80258   6.885   7.050   6.752
26084SOL    HW180259   6.941   7.042   6.832
26084SOL    HW280260   6.825   6.974   6.760
26085SOL     OW80261   7.152   6.199   6.049
26085SOL    HW180262   7.124   6.265   6.115
26085SOL    HW280263   7.185   6.254   5.977
26086SOL     OW80264   5.927   7.112   6.888
26086SOL    HW180265   5.919   7.071   6.799
26086SOL    HW280266   6.024   7.128   6.891
26087SOL     OW80267   6.020   6.322   7.213
26087SOL    HW180268   6.075   6.358   7.141
26087SOL    HW280269   6.033   6.227   7.200
26088SOL     OW80270   7.211   6.363   7.255
26088SOL    HW180271   7.123   6.403   7.260
26088SOL    HW280272   7.248   6.406   7.176
26089SOL     OW80273   6.581   5.699   7.353
26089SOL    HW180274   6.646   5.767   7.332
26089SOL    HW280275   6.625   5.620   7.317
26090SOL     OW80276   6.102   5.608   7.334
26090SOL    HW180277   6.056   5.557   7.264
26090SOL    HW280278   6.039   5.683   7.343
26091SOL     OW80279   6.171   6.442   6.631
26091SOL    HW180280   6.189   6.535   6.617
26091SOL    HW280281   6.109   6.440   6.706
26092SOL     OW80282   6.946   6.443   6.615
26092SOL    HW180283   6.860   6.419   6.577
26092SOL    HW280284   6.990   6.357   6.619
26093SOL     OW80285   5.905   5.790   6.846
26093SOL    HW180286   5.850   5.810   6.924
26093SOL    HW280287   5.857   5.713   6.809
26094SOL     OW80288   5.660   6.869   6.844
26094SOL    HW180289   5.672   6.805   6.917
26094SOL    HW280290   5.641   6.952   6.892
26095SOL     OW80291   6.338   6.218   6.651
26095SOL    HW180292   6.406   6.194   6.586
26095SOL    HW280293   6.302   6.303   6.620
26096SOL     OW80294   7.352   6.539   7.426
26096SOL    HW180295   7.306   6.482   7.363
26096SOL    HW280296   7.284   6.552   7.493
26097SOL     OW80297   7.227   5.961   5.964
26097SOL    HW180298   7.228   5.901   6.039
26097SOL    HW280299   7.198   6.046   6.004
26098SOL     OW80300   6.628   6.353   6.579
26098SOL    HW180301   6.606   6.358   6.674
26098SOL    HW280302   6.612   6.259   6.558
26099SOL     OW80303   6.567   7.155   7.290
26099SOL    HW180304   6.556   7.205   7.207
26099SOL    HW280305   6.599   7.069   7.258
26100SOL     OW80306   7.436   7.072   7.185
26100SOL    HW180307   7.460   7.105   7.096
26100SOL    HW280308   7.511   7.102   7.239
26101SOL     OW80309   5.930   6.492   7.389
26101SOL    HW180310   6.011   6.508   7.438
26101SOL    HW280311   5.958   6.418   7.330
26102SOL     OW80312   7.212   5.874   5.702
26102SOL    HW180313   7.141   5.809   5.694
26102SOL    HW280314   7.206   5.898   5.796
26103SOL     OW80315   6.893   6.467   5.627
26103SOL    HW180316   6.863   6.374   5.621
26103SOL    HW280317   6.932   6.481   5.539
26104SOL     OW80318   6.648   6.942   6.426
26104SOL    HW180319   6.662   6.861   6.372
26104SOL    HW280320   6.718   7.004   6.399
26105SOL     OW80321   5.894   6.401   6.560
26105SOL    HW180322   5.989   6.385   6.545
26105SOL    HW280323   5.866   6.319   6.603
26106SOL     OW80324   5.908   6.076   6.575
26106SOL    HW180325   5.892   5.989   6.538
26106SOL    HW280326   5.988   6.105   6.526
26107SOL     OW80327   6.742   5.950   7.286
26107SOL    HW180328   6.695   6.005   7.352
26107SOL    HW280329   6.823   6.002   7.272
26108SOL     OW80330   6.746   5.776   7.077
26108SOL    HW180331   6.746   5.846   7.145
26108SOL    HW280332   6.787   5.822   7.002
26109SOL     OW80333   5.592   6.923   5.809
26109SOL    HW180334   5.510   6.942   5.758
26109SOL    HW280335   5.592   6.825   5.809
26110SOL     OW80336   5.679   7.372   6.535
26110SOL    HW180337   5.648   7.295   6.484
26110SOL    HW280338   5.769   7.386   6.498
26111SOL     OW80339   6.069   7.160   6.483
26111SOL    HW180340   6.142   7.222   6.500
26111SOL    HW280341   6.110   7.095   6.422
26112SOL     OW80342   6.558   6.365   6.840
26112SOL    HW180343   6.607   6.330   6.916
26112SOL    HW280344   6.469   6.332   6.859
26113SOL     OW80345   5.682   6.194   6.703
26113SOL    HW180346   5.723   6.116   6.663
26113SOL    HW280347   5.624   6.156   6.771
26114SOL     OW80348   5.803   6.095   7.309
26114SOL    HW180349   5.825   6.038   7.234
26114SOL    HW280350   5.757   6.169   7.265
26115SOL     OW80351   6.971   6.499   7.247
26115SOL    HW180352   6.989   6.594   7.238
26115SOL    HW280353   6.957   6.474   7.154
26116SOL     OW80354   7.246   6.208   6.826
26116SOL    HW180355   7.204   6.130   6.865
26116SOL    HW280356   7.312   6.168   6.766
26117SOL     OW80357   5.843   7.133   7.305
26117SOL    HW180358   5.827   7.201   7.371
26117SOL    HW280359   5.841   7.051   7.358
26118SOL     OW80360   6.284   6.061   6.853
26118SOL    HW180361   6.223   5.992   6.823
26118SOL    HW280362   6.284   6.124   6.777
26119SOL     OW80363   6.504   7.279   7.053
26119SOL    HW180364   6.500   7.248   6.961
26119SOL    HW280365   6.507   7.376   7.045
26120SOL     OW80366   6.054   6.064   5.773
26120SOL    HW180367   6.104   6.143   5.801
26120SOL    HW280368   5.963   6.098   5.775
26121SOL     OW80369   5.715   6.697   7.054
26121SOL    HW180370   5.709   6.653   7.142
26121SOL    HW280371   5.719   6.623   6.992
26122SOL     OW80372   6.907   6.629   6.814
26122SOL    HW180373   6.925   6.571   6.737
26122SOL    HW280374   6.843   6.692   6.775
26123SOL     OW80375   6.928   6.431   5.904
26123SOL    HW180376   6.851   6.400   5.954
26123SOL    HW280377   6.896   6.438   5.812
26124SOL     OW80378   7.332   7.326   6.713
26124SOL    HW180379   7.412   7.342   6.660
26124SOL    HW280380   7.319   7.230   6.697
26125SOL     OW80381   6.836   7.316   6.708
26125SOL    HW180382   6.925   7.332   6.673
26125SOL    HW280383   6.836   7.219   6.721
26126SOL     OW80384   6.284   7.221   7.326
26126SOL    HW180385   6.242   7.307   7.307
26126SOL    HW280386   6.372   7.231   7.286
26127SOL     OW80387   7.339   5.721   6.151
26127SOL    HW180388   7.357   5.713   6.057
26127SOL    HW280389   7.312   5.630   6.175
26128SOL     OW80390   6.963   7.170   6.073
26128SOL    HW180391   7.029   7.194   6.004
26128SOL    HW280392   6.912   7.251   6.085
26129SOL     OW80393   5.745   7.379   7.412
26129SOL    HW180394   5.700   7.315   7.471
26129SOL    HW280395   5.794   7.430   7.477
26130SOL     OW80396   6.853   6.527   6.271
26130SOL    HW180397   6.919   6.457   6.262
26130SOL    HW280398   6.885   6.595   6.209
26131SOL     OW80399   6.384   6.842   7.007
26131SOL    HW180400   6.356   6.899   7.082
26131SOL    HW280401   6.308   6.850   6.948
26132SOL     OW80402   6.251   7.214   5.734
26132SOL    HW180403   6.266   7.216   5.638
26132SOL    HW280404   6.187   7.139   5.740
26133SOL     OW80405   7.215   7.316   6.973
26133SOL    HW180406   7.258   7.329   6.887
26133SOL    HW280407   7.201   7.408   7.005
26134SOL     OW80408   7.425   5.752   6.548
26134SOL    HW180409   7.443   5.664   6.511
26134SOL    HW280410   7.342   5.780   6.503
26135SOL     OW80411   6.768   7.207   5.602
26135SOL    HW180412   6.772   7.113   5.628
26135SOL    HW280413   6.704   7.207   5.528
26136SOL     OW80414   6.398   6.578   6.966
26136SOL    HW180415   6.427   6.581   6.874
26136SOL    HW280416   6.397   6.673   6.989
26137SOL     OW80417   7.102   7.170   5.616
26137SOL    HW180418   7.012   7.203   5.615
26137SOL    HW280419   7.133   7.194   5.526
26138SOL     OW80420   5.918   6.869   7.075
26138SOL    HW180421   5.913   6.928   6.999
26138SOL    HW280422   5.841   6.810   7.064
26139SOL     OW80423   7.192   6.895   6.856
26139SOL    HW180424   7.220   6.861   6.942
26139SOL    HW280425   7.134   6.969   6.885
26140SOL     OW80426   6.635   6.684   6.323
26140SOL    HW180427   6.553   6.636   6.340
26140SOL    HW280428   6.693   6.614   6.287
26141SOL     OW80429   6.622   5.822   6.581
26141SOL    HW180430   6.594   5.780   6.496
26141SOL    HW280431   6.622   5.745   6.640
26142SOL     OW80432   6.197   7.058   6.060
26142SOL    HW180433   6.231   6.994   5.997
26142SOL    HW280434   6.116   7.089   6.016
26143SOL     OW80435   7.291   5.954   6.965
26143SOL    HW180436   7.351   6.030   6.957
26143SOL    HW280437   7.332   5.889   6.904
26144SOL     OW80438   5.844   6.964   5.861
26144SOL    HW180439   5.757   6.942   5.822
26144SOL    HW280440   5.821   6.982   5.954
26145SOL     OW80441   5.717   6.627   7.315
26145SOL    HW180442   5.641   6.594   7.365
26145SOL    HW280443   5.792   6.572   7.347
26146SOL     OW80444   6.267   5.786   7.090
26146SOL    HW180445   6.351   5.758   7.048
26146SOL    HW280446   6.296   5.819   7.177
26147SOL     OW80447   5.709   5.945   5.597
26147SOL    HW180448   5.619   5.954   5.629
26147SOL    HW280449   5.704   5.986   5.509
26148SOL     OW80450   7.034   6.442   6.975
26148SOL    HW180451   6.984   6.498   6.913
26148SOL    HW280452   7.125   6.464   6.953
26149SOL     OW80453   6.770   6.950   5.695
26149SOL    HW180454   6.677   6.921   5.693
26149SOL    HW280455   6.795   6.936   5.788
26150SOL     OW80456   6.208   6.386   7.018
26150SOL    HW180457   6.262   6.467   7.013
26150SOL    HW280458   6.278   6.319   7.030
26151SOL     OW80459   7.102   7.356   6.546
26151SOL    HW180460   7.132   7.406   6.469
26151SOL    HW280461   7.183   7.349   6.600
26152SOL     OW80462   6.311   6.122   7.271
26152SOL    HW180463   6.350   6.187   7.333
26152SOL    HW280464   6.330   6.036   7.313
26153SOL     OW80465   7.047   6.770   7.219
26153SOL    HW180466   7.039   6.771   7.317
26153SOL    HW280467   7.141   6.791   7.207
26154SOL     OW80468   5.961   7.323   7.145
26154SOL    HW180469   5.876   7.367   7.130
26154SOL    HW280470   5.933   7.237   7.182
26155SOL     OW80471   7.290   6.473   6.828
26155SOL    HW180472   7.264   6.380   6.809
26155SOL    HW280473   7.253   6.523   6.753
26156SOL     OW80474   6.173   6.319   6.244
26156SOL    HW180475   6.223   6.394   6.211
26156SOL    HW280476   6.109   6.305   6.172
26157SOL     OW80477   7.358   5.963   7.225
26157SOL    HW180478   7.330   5.969   7.131
26157SOL    HW280479   7.282   5.916   7.263
26158SOL     OW80480   7.330   6.532   7.085
26158SOL    HW180481   7.319   6.628   7.080
26158SOL    HW280482   7.336   6.507   6.990
26159SOL     OW80483   6.490   6.949   5.601
26159SOL    HW180484   6.416   6.930   5.662
26159SOL    HW280485   6.474   7.040   5.573
26160SOL     OW80486   6.227   7.390   6.494
26160SOL    HW180487   6.221   7.486   6.480
26160SOL    HW280488   6.322   7.376   6.504
26161SOL     OW80489   6.444   6.537   6.453
26161SOL    HW180490   6.500   6.465   6.485
26161SOL    HW280491   6.461   6.606   6.518
26162SOL     OW80492   7.454   7.146   6.419
26162SOL    HW180493   7.368   7.150   6.376
26162SOL    HW280494   7.443   7.073   6.482
26163SOL     OW80495   5.821   6.899   7.445
26163SOL    HW180496   5.768   6.824   7.416
26163SOL    HW280497   5.794   6.908   7.538
26164SOL     OW80498   5.681   6.815   6.237
26164SOL    HW180499   5.629   6.732   6.234
26164SOL    HW280500   5.756   6.794   6.179
26165SOL     OW80501   6.260   6.982   7.200
26165SOL    HW180502   6.184   6.931   7.233
26165SOL    HW280503   6.253   7.065   7.251
26166SOL     OW80504   7.394   5.753   6.810
26166SOL    HW180505   7.394   5.656   6.812
26166SOL    HW280506   7.409   5.768   6.714
26167SOL     OW80507   6.014   6.009   6.105
26167SOL    HW180508   6.049   5.953   6.033
26167SOL    HW280509   6.055   5.971   6.182
26168SOL     OW80510   7.302   7.070   6.667
26168SOL    HW180511   7.220   7.046   6.622
26168SOL    HW280512   7.295   7.013   6.746
26169SOL     OW80513   5.935   6.141   6.860
26169SOL    HW180514   5.984   6.082   6.919
26169SOL    HW280515   5.932   6.092   6.776
26170SOL     OW80516   6.403   7.176   6.249
26170SOL    HW180517   6.393   7.191   6.154
26170SOL    HW280518   6.323   7.125   6.269
26171SOL     OW80519   7.019   5.840   6.689
26171SOL    HW180520   7.044   5.754   6.723
26171SOL    HW280521   6.964   5.877   6.761
26172SOL     OW80522   6.603   5.594   6.737
26172SOL    HW180523   6.546   5.539   6.681
26172SOL    HW280524   6.690   5.548   6.731
26173SOL     OW80525   6.189   7.145   6.852
26173SOL    HW180526   6.189   7.231   6.900
26173SOL    HW280527   6.283   7.140   6.829
26174SOL     OW80528   6.948   6.075   6.301
26174SOL    HW180529   6.872   6.128   6.269
26174SOL    HW280530   6.904   6.022   6.370
26175SOL     OW80531   7.184   5.802   6.446
26175SOL    HW180532   7.100   5.806   6.494
26175SOL    HW280533   7.186   5.886   6.398
26176SOL     OW80534   5.621   6.672   5.901
26176SOL    HW180535   5.704   6.664   5.851
26176SOL    HW280536   5.603   6.578   5.924
26177SOL     OW80537   6.456   7.213   5.902
26177SOL    HW180538   6.381   7.205   5.839
26177SOL    HW280539   6.433   7.293   5.953
26178SOL     OW80540   5.816   6.220   7.575
26178SOL    HW180541   5.723   6.209   7.598
26178SOL    HW280542   5.821   6.192   7.482
26179SOL     OW80543   5.799   5.883   8.441
26179SOL    HW180544   5.824   5.854   8.531
26179SOL    HW280545   5.716   5.834   8.428
26180SOL     OW80546   5.588   5.985   8.071
26180SOL    HW180547   5.511   6.013   8.125
26180SOL    HW280548   5.555   5.903   8.032
26181SOL     OW80549   6.152   6.870   8.644
26181SOL    HW180550   6.064   6.871   8.603
26181SOL    HW280551   6.163   6.964   8.668
26182SOL     OW80552   7.144   7.102   8.160
26182SOL    HW180553   7.107   7.078   8.247
26182SOL    HW280554   7.070   7.086   8.099
26183SOL     OW80555   6.714   6.272   8.160
26183SOL    HW180556   6.747   6.360   8.133
26183SOL    HW280557   6.677   6.292   8.248
26184SOL     OW80558   7.359   6.192   7.684
26184SOL    HW180559   7.341   6.193   7.587
26184SOL    HW280560   7.313   6.111   7.711
26185SOL     OW80561   6.326   6.750   8.479
26185SOL    HW180562   6.262   6.793   8.540
26185SOL    HW280563   6.362   6.827   8.432
26186SOL     OW80564   6.458   6.341   9.257
26186SOL    HW180565   6.445   6.396   9.335
26186SOL    HW280566   6.490   6.404   9.191
26187SOL     OW80567   6.278   6.611   8.113
26187SOL    HW180568   6.344   6.588   8.181
26187SOL    HW280569   6.213   6.664   8.163
26188SOL     OW80570   6.277   6.736   9.245
26188SOL    HW180571   6.322   6.819   9.270
26188SOL    HW280572   6.189   6.768   9.219
26189SOL     OW80573   5.907   7.012   8.516
26189SOL    HW180574   5.833   6.971   8.467
26189SOL    HW280575   5.951   7.068   8.449
26190SOL     OW80576   7.057   7.089   8.826
26190SOL    HW180577   7.110   7.171   8.835
26190SOL    HW280578   6.993   7.098   8.899
26191SOL     OW80579   6.018   5.984   8.968
26191SOL    HW180580   6.096   5.927   8.960
26191SOL    HW280581   5.945   5.923   8.948
26192SOL     OW80582   7.217   6.037   8.193
26192SOL    HW180583   7.150   6.070   8.131
26192SOL    HW280584   7.211   6.102   8.264
26193SOL     OW80585   5.806   7.302   7.918
26193SOL    HW180586   5.834   7.379   7.972
26193SOL    HW280587   5.869   7.307   7.844
26194SOL     OW80588   6.701   6.937   9.121
26194SOL    HW180589   6.754   6.932   9.201
26194SOL    HW280590   6.660   6.848   9.120
26195SOL     OW80591   5.844   7.023   7.984
26195SOL    HW180592   5.832   7.119   7.986
26195SOL    HW280593   5.773   6.992   8.043
26196SOL     OW80594   5.858   6.661   8.351
26196SOL    HW180595   5.853   6.590   8.417
26196SOL    HW280596   5.804   6.731   8.392
26197SOL     OW80597   6.192   7.367   8.870
26197SOL    HW180598   6.110   7.345   8.917
26197SOL    HW280599   6.205   7.460   8.896
26198SOL     OW80600   6.156   6.579   7.566
26198SOL    HW180601   6.203   6.631   7.497
26198SOL    HW280602   6.202   6.611   7.646
26199SOL     OW80603   7.197   5.693   8.942
26199SOL    HW180604   7.191   5.768   8.882
26199SOL    HW280605   7.202   5.736   9.029
26200SOL     OW80606   5.703   6.228   8.007
26200SOL    HW180607   5.670   6.137   8.021
26200SOL    HW280608   5.690   6.268   8.095
26201SOL     OW80609   7.436   7.322   7.796
26201SOL    HW180610   7.507   7.306   7.862
26201SOL    HW280611   7.452   7.414   7.771
26202SOL     OW80612   5.656   7.189   7.575
26202SOL    HW180613   5.631   7.096   7.584
26202SOL    HW280614   5.627   7.229   7.659
26203SOL     OW80615   7.272   6.480   8.095
26203SOL    HW180616   7.351   6.448   8.050
26203SOL    HW280617   7.237   6.543   8.030
26204SOL     OW80618   7.232   6.699   7.894
26204SOL    HW180619   7.323   6.698   7.860
26204SOL    HW280620   7.239   6.767   7.965
26205SOL     OW80621   5.694   6.328   9.025
26205SOL    HW180622   5.748   6.383   9.084
26205SOL    HW280623   5.614   6.384   9.018
26206SOL     OW80624   6.182   7.003   8.206
26206SOL    HW180625   6.145   6.913   8.220
26206SOL    HW280626   6.169   7.012   8.109
26207SOL     OW80627   6.873   6.813   8.869
26207SOL    HW180628   6.901   6.735   8.818
26207SOL    HW280629   6.925   6.802   8.951
26208SOL     OW80630   6.416   5.592   7.923
26208SOL    HW180631   6.450   5.683   7.926
26208SOL    HW280632   6.320   5.606   7.933
26209SOL     OW80633   5.757   6.562   8.708
26209SOL    HW180634   5.836   6.551   8.654
26209SOL    HW280635   5.691   6.509   8.662
26210SOL     OW80636   7.127   6.556   7.640
26210SOL    HW180637   7.048   6.508   7.671
26210SOL    HW280638   7.162   6.592   7.723
26211SOL     OW80639   6.762   7.440   9.020
26211SOL    HW180640   6.807   7.397   8.946
26211SOL    HW280641   6.740   7.360   9.070
26212SOL     OW80642   5.926   5.817   9.220
26212SOL    HW180643   5.994   5.883   9.236
26212SOL    HW280644   5.851   5.854   9.270
26213SOL     OW80645   7.051   7.013   8.407
26213SOL    HW180646   6.991   7.029   8.482
26213SOL    HW280647   7.025   6.923   8.379
26214SOL     OW80648   7.250   7.318   8.048
26214SOL    HW180649   7.237   7.283   7.959
26214SOL    HW280650   7.219   7.243   8.103
26215SOL     OW80651   6.170   6.300   7.708
26215SOL    HW180652   6.175   6.390   7.673
26215SOL    HW280653   6.097   6.307   7.773
26216SOL     OW80654   6.844   5.939   8.377
26216SOL    HW180655   6.758   5.895   8.392
26216SOL    HW280656   6.905   5.887   8.433
26217SOL     OW80657   7.169   7.226   7.759
26217SOL    HW180658   7.263   7.249   7.763
26217SOL    HW280659   7.156   7.223   7.662
26218SOL     OW80660   6.364   6.237   8.894
26218SOL    HW180661   6.364   6.189   8.980
26218SOL    HW280662   6.328   6.167   8.836
26219SOL     OW80663   6.979   6.067   9.119
26219SOL    HW180664   6.987   6.124   9.197
26219SOL    HW280665   7.039   5.993   9.142
26220SOL     OW80666   6.536   6.468   9.024
26220SOL    HW180667   6.582   6.386   8.996
26220SOL    HW280668   6.519   6.511   8.939
26221SOL     OW80669   6.554   5.992   8.677
26221SOL    HW180670   6.461   5.993   8.704
26221SOL    HW280671   6.556   5.926   8.608
26222SOL     OW80672   6.636   6.269   7.863
26222SOL    HW180673   6.648   6.285   7.958
26222SOL    HW280674   6.547   6.227   7.860
26223SOL     OW80675   5.692   6.377   8.246
26223SOL    HW180676   5.771   6.404   8.294
26223SOL    HW280677   5.633   6.453   8.257
26224SOL     OW80678   5.685   7.409   9.015
26224SOL    HW180679   5.697   7.393   9.111
26224SOL    HW280680   5.589   7.413   9.007
26225SOL     OW80681   6.467   5.960   7.662
26225SOL    HW180682   6.507   6.013   7.591
26225SOL    HW280683   6.474   5.872   7.624
26226SOL     OW80684   7.290   6.161   9.291
26226SOL    HW180685   7.257   6.241   9.244
26226SOL    HW280686   7.326   6.111   9.216
26227SOL     OW80687   6.950   6.738   8.012
26227SOL    HW180688   7.027   6.725   7.955
26227SOL    HW280689   6.898   6.800   7.958
26228SOL     OW80690   6.130   5.782   8.339
26228SOL    HW180691   6.145   5.801   8.434
26228SOL    HW280692   6.128   5.869   8.297
26229SOL     OW80693   6.572   7.027   7.937
26229SOL    HW180694   6.528   7.085   7.873
26229SOL    HW280695   6.579   7.083   8.016
26230SOL     OW80696   5.931   7.401   8.303
26230SOL    HW180697   5.979   7.317   8.315
26230SOL    HW280698   5.999   7.467   8.320
26231SOL     OW80699   7.404   6.632   8.328
26231SOL    HW180700   7.349   6.620   8.248
26231SOL    HW280701   7.340   6.620   8.399
26232SOL     OW80702   6.808   7.152   8.950
26232SOL    HW180703   6.786   7.083   9.014
26232SOL    HW280704   6.768   7.115   8.870
26233SOL     OW80705   5.894   6.539   7.699
26233SOL    HW180706   5.977   6.564   7.656
26233SOL    HW280707   5.862   6.467   7.641
26234SOL     OW80708   7.052   6.346   8.174
26234SOL    HW180709   7.051   6.313   8.265
26234SOL    HW280710   7.137   6.392   8.168
26235SOL     OW80711   6.045   6.854   9.175
26235SOL    HW180712   6.000   6.863   9.087
26235SOL    HW280713   5.967   6.857   9.234
26236SOL     OW80714   6.674   7.365   7.692
26236SOL    HW180715   6.607   7.308   7.732
26236SOL    HW280716   6.692   7.320   7.608
26237SOL     OW80717   5.757   5.875   8.950
26237SOL    HW180718   5.683   5.935   8.967
26237SOL    HW280719   5.765   5.828   9.035
26238SOL     OW80720   7.209   6.946   7.541
26238SOL    HW180721   7.172   7.030   7.512
26238SOL    HW280722   7.145   6.880   7.506
26239SOL     OW80723   6.037   7.326   7.762
26239SOL    HW180724   6.089   7.370   7.831
26239SOL    HW280725   6.104   7.284   7.706
26240SOL     OW80726   6.981   5.706   7.888
26240SOL    HW180727   6.969   5.665   7.799
26240SOL    HW280728   7.078   5.716   7.894
26241SOL     OW80729   5.831   7.387   8.666
26241SOL    HW180730   5.883   7.318   8.708
26241SOL    HW280731   5.807   7.347   8.582
26242SOL     OW80732   6.552   7.294   8.323
26242SOL    HW180733   6.636   7.246   8.326
26242SOL    HW280734   6.503   7.239   8.258
26243SOL     OW80735   5.983   6.272   7.919
26243SOL    HW180736   6.004   6.179   7.941
26243SOL    HW280737   5.886   6.272   7.932
26244SOL     OW80738   7.129   5.846   9.178
26244SOL    HW180739   7.129   5.847   9.276
26244SOL    HW280740   7.063   5.777   9.161
26245SOL     OW80741   6.227   5.717   7.546
26245SOL    HW180742   6.288   5.649   7.575
26245SOL    HW280743   6.173   5.670   7.479
26246SOL     OW80744   6.349   5.843   9.177
26246SOL    HW180745   6.432   5.791   9.187
26246SOL    HW280746   6.306   5.826   9.262
26247SOL     OW80747   6.471   7.129   8.642
26247SOL    HW180748   6.464   7.106   8.548
26247SOL    HW280749   6.536   7.066   8.676
26248SOL     OW80750   6.912   6.187   8.880
26248SOL    HW180751   6.950   6.152   8.963
26248SOL    HW280752   6.969   6.263   8.860
26249SOL     OW80753   6.404   6.998   8.379
26249SOL    HW180754   6.489   6.984   8.332
26249SOL    HW280755   6.341   7.009   8.306
26250SOL     OW80756   6.518   6.116   8.356
26250SOL    HW180757   6.499   6.106   8.259
26250SOL    HW280758   6.553   6.028   8.376
26251SOL     OW80759   6.151   5.632   7.944
26251SOL    HW180760   6.071   5.634   8.000
26251SOL    HW280761   6.138   5.715   7.892
26252SOL     OW80762   7.030   6.756   7.477
26252SOL    HW180763   7.058   6.684   7.536
26252SOL    HW280764   6.942   6.780   7.511
26253SOL     OW80765   5.863   5.652   7.659
26253SOL    HW180766   5.925   5.712   7.615
26253SOL    HW280767   5.922   5.579   7.685
26254SOL     OW80768   6.518   5.842   7.936
26254SOL    HW180769   6.496   5.889   7.854
26254SOL    HW280770   6.614   5.857   7.940
26255SOL     OW80771   6.662   6.258   8.924
26255SOL    HW180772   6.621   6.170   8.924
26255SOL    HW280773   6.756   6.238   8.910
26256SOL     OW80774   6.806   7.182   8.249
26256SOL    HW180775   6.810   7.230   8.164
26256SOL    HW280776   6.895   7.196   8.284
26257SOL     OW80777   6.062   6.758   8.193
26257SOL    HW180778   5.986   6.725   8.245
26257SOL    HW280779   6.030   6.738   8.102
26258SOL     OW80780   6.848   7.396   8.041
26258SOL    HW180781   6.902   7.448   7.978
26258SOL    HW280782   6.824   7.463   8.106
26259SOL     OW80783   6.641   6.123   7.478
26259SOL    HW180784   6.594   6.205   7.456
26259SOL    HW280785   6.713   6.151   7.536
26260SOL     OW80786   5.648   6.129   8.849
26260SOL    HW180787   5.741   6.114   8.823
26260SOL    HW280788   5.654   6.212   8.901
26261SOL     OW80789   6.151   5.819   8.613
26261SOL    HW180790   6.198   5.744   8.652
26261SOL    HW280791   6.061   5.806   8.646
26262SOL     OW80792   6.465   6.051   8.108
26262SOL    HW180793   6.422   6.096   8.034
26262SOL    HW280794   6.488   5.965   8.069
26263SOL     OW80795   6.591   5.659   8.214
26263SOL    HW180796   6.551   5.640   8.129
26263SOL    HW280797   6.574   5.577   8.265
26264SOL     OW80798   7.012   6.764   8.326
26264SOL    HW180799   6.970   6.681   8.352
26264SOL    HW280800   7.000   6.763   8.230
26265SOL     OW80801   7.028   6.173   8.459
26265SOL    HW180802   6.985   6.088   8.446
26265SOL    HW280803   7.095   6.155   8.527
26266SOL     OW80804   7.428   6.411   7.839
26266SOL    HW180805   7.482   6.354   7.898
26266SOL    HW280806   7.408   6.349   7.767
26267SOL     OW80807   6.078   6.991   7.591
26267SOL    HW180808   5.989   6.984   7.632
26267SOL    HW280809   6.065   6.946   7.507
26268SOL     OW80810   7.266   6.868   8.107
26268SOL    HW180811   7.364   6.875   8.110
26268SOL    HW280812   7.236   6.958   8.130
26269SOL     OW80813   6.989   6.172   7.510
26269SOL    HW180814   6.940   6.144   7.590
26269SOL    HW280815   7.078   6.139   7.528
26270SOL     OW80816   6.109   5.830   7.775
26270SOL    HW180817   6.157   5.796   7.697
26270SOL    HW280818   6.075   5.915   7.739
26271SOL     OW80819   7.315   6.817   9.028
26271SOL    HW180820   7.403   6.776   9.024
26271SOL    HW280821   7.339   6.910   9.041
26272SOL     OW80822   6.660   6.957   8.790
26272SOL    HW180823   6.582   6.916   8.833
26272SOL    HW280824   6.733   6.902   8.826
26273SOL     OW80825   7.199   7.215   9.082
26273SOL    HW180826   7.200   7.248   8.990
26273SOL    HW280827   7.280   7.161   9.084
26274SOL     OW80828   6.703   6.816   8.541
26274SOL    HW180829   6.638   6.848   8.604
26274SOL    HW280830   6.674   6.858   8.458
26275SOL     OW80831   7.190   6.683   8.528
26275SOL    HW180832   7.196   6.749   8.600
26275SOL    HW280833   7.133   6.730   8.465
26276SOL     OW80834   6.504   5.707   8.830
26276SOL    HW180835   6.540   5.663   8.750
26276SOL    HW280836   6.584   5.735   8.877
26277SOL     OW80837   6.580   6.698   9.186
26277SOL    HW180838   6.490   6.724   9.210
26277SOL    HW280839   6.567   6.624   9.124
26278SOL     OW80840   6.291   6.640   7.794
26278SOL    HW180841   6.281   6.618   7.888
26278SOL    HW280842   6.371   6.589   7.769
26279SOL     OW80843   6.034   6.387   8.732
26279SOL    HW180844   6.092   6.337   8.672
26279SOL    HW280845   5.952   6.335   8.727
26280SOL     OW80846   6.869   5.972   8.713
26280SOL    HW180847   6.886   6.049   8.771
26280SOL    HW280848   6.783   5.993   8.675
26281SOL     OW80849   5.660   7.148   8.793
26281SOL    HW180850   5.652   7.242   8.770
26281SOL    HW280851   5.756   7.133   8.787
26282SOL     OW80852   5.956   6.694   7.956
26282SOL    HW180853   5.974   6.754   7.883
26282SOL    HW280854   5.931   6.613   7.909
26283SOL     OW80855   6.126   6.135   8.293
26283SOL    HW180856   6.149   6.192   8.217
26283SOL    HW280857   6.209   6.133   8.342
26284SOL     OW80858   6.810   6.922   7.836
26284SOL    HW180859   6.852   7.000   7.874
26284SOL    HW280860   6.717   6.935   7.863
26285SOL     OW80861   6.887   7.059   8.621
26285SOL    HW180862   6.951   7.054   8.694
26285SOL    HW280863   6.822   6.992   8.644
26286SOL     OW80864   7.176   6.195   7.930
26286SOL    HW180865   7.130   6.256   7.990
26286SOL    HW280866   7.199   6.253   7.856
26287SOL     OW80867   5.924   7.091   8.764
26287SOL    HW180868   5.916   7.058   8.671
26287SOL    HW280869   6.018   7.117   8.764
26288SOL     OW80870   6.052   6.325   9.059
26288SOL    HW180871   5.986   6.332   8.989
26288SOL    HW280872   6.063   6.229   9.068
26289SOL     OW80873   7.210   6.357   9.132
26289SOL    HW180874   7.122   6.400   9.134
26289SOL    HW280875   7.251   6.403   9.056
26290SOL     OW80876   6.577   5.698   9.196
26290SOL    HW180877   6.638   5.772   9.186
26290SOL    HW280878   6.629   5.626   9.158
26291SOL     OW80879   6.090   5.593   9.212
26291SOL    HW180880   6.051   5.536   9.143
26291SOL    HW280881   6.028   5.668   9.209
26292SOL     OW80882   6.201   6.493   8.511
26292SOL    HW180883   6.231   6.583   8.487
26292SOL    HW280884   6.117   6.510   8.555
26293SOL     OW80885   6.937   6.439   8.474
26293SOL    HW180886   6.852   6.411   8.436
26293SOL    HW280887   6.980   6.353   8.487
26294SOL     OW80888   6.816   6.102   7.715
26294SOL    HW180889   6.813   6.025   7.773
26294SOL    HW280890   6.757   6.163   7.763
26295SOL     OW80891   5.873   5.792   8.693
26295SOL    HW180892   5.834   5.826   8.776
26295SOL    HW280893   5.844   5.699   8.696
26296SOL     OW80894   5.615   6.880   8.734
26296SOL    HW180895   5.640   6.828   8.812
26296SOL    HW280896   5.626   6.972   8.763
26297SOL     OW80897   6.328   6.238   8.516
26297SOL    HW180898   6.396   6.208   8.452
26297SOL    HW280899   6.299   6.324   8.482
26298SOL     OW80900   7.353   6.541   9.296
26298SOL    HW180901   7.310   6.491   9.226
26298SOL    HW280902   7.282   6.548   9.361
26299SOL     OW80903   5.908   5.657   8.053
26299SOL    HW180904   5.868   5.743   8.077
26299SOL    HW280905   5.904   5.610   8.139
26300SOL     OW80906   7.184   5.963   7.793
26300SOL    HW180907   7.214   5.891   7.851
26300SOL    HW280908   7.179   6.039   7.855
26301SOL     OW80909   6.645   6.343   8.422
26301SOL    HW180910   6.632   6.357   8.517
26301SOL    HW280911   6.611   6.252   8.409
26302SOL     OW80912   6.579   7.169   9.152
26302SOL    HW180913   6.551   7.206   9.065
26302SOL    HW280914   6.602   7.077   9.128
26303SOL     OW80915   7.435   7.082   9.049
26303SOL    HW180916   7.464   7.109   8.960
26303SOL    HW280917   7.514   7.102   9.103
26304SOL     OW80918   5.937   6.473   9.253
26304SOL    HW180919   6.013   6.513   9.297
26304SOL    HW280920   5.978   6.407   9.194
26305SOL     OW80921   7.088   5.838   7.573
26305SOL    HW180922   7.013   5.787   7.607
26305SOL    HW280923   7.126   5.879   7.653
26306SOL     OW80924   6.869   6.416   7.481
26306SOL    HW180925   6.912   6.329   7.492
26306SOL    HW280926   6.903   6.442   7.392
26307SOL     OW80927   6.651   6.953   8.293
26307SOL    HW180928   6.663   6.874   8.236
26307SOL    HW280929   6.720   7.014   8.262
26308SOL     OW80930   5.890   6.409   8.470
26308SOL    HW180931   5.967   6.406   8.412
26308SOL    HW280932   5.869   6.314   8.478
26309SOL     OW80933   5.912   6.130   8.452
26309SOL    HW180934   5.879   6.040   8.436
26309SOL    HW280935   5.977   6.138   8.379
26310SOL     OW80936   6.736   5.958   9.139
26310SOL    HW180937   6.693   6.010   9.210
26310SOL    HW280938   6.823   6.000   9.134
26311SOL     OW80939   6.750   5.779   8.938
26311SOL    HW180940   6.748   5.847   9.009
26311SOL    HW280941   6.793   5.827   8.866
26312SOL     OW80942   5.588   6.903   7.645
26312SOL    HW180943   5.496   6.916   7.612
26312SOL    HW280944   5.587   6.809   7.672
26313SOL     OW80945   5.688   7.368   8.397
26313SOL    HW180946   5.656   7.296   8.339
26313SOL    HW280947   5.778   7.384   8.361
26314SOL     OW80948   6.065   7.179   8.374
26314SOL    HW180949   6.137   7.239   8.403
26314SOL    HW280950   6.114   7.116   8.316
26315SOL     OW80951   6.568   6.371   8.691
26315SOL    HW180952   6.611   6.332   8.769
26315SOL    HW280953   6.486   6.318   8.686
26316SOL     OW80954   5.619   6.115   8.558
26316SOL    HW180955   5.698   6.100   8.506
26316SOL    HW280956   5.652   6.112   8.648
26317SOL     OW80957   5.808   6.104   9.150
26317SOL    HW180958   5.861   6.063   9.080
26317SOL    HW280959   5.755   6.170   9.101
26318SOL     OW80960   6.972   6.498   9.101
26318SOL    HW180961   6.989   6.594   9.103
26318SOL    HW280962   6.970   6.479   9.006
26319SOL     OW80963   6.387   6.169   7.827
26319SOL    HW180964   6.399   6.098   7.761
26319SOL    HW280965   6.310   6.216   7.792
26320SOL     OW80966   7.228   6.210   8.664
26320SOL    HW180967   7.201   6.142   8.726
26320SOL    HW280968   7.308   6.171   8.624
26321SOL     OW80969   5.834   7.125   9.173
26321SOL    HW180970   5.815   7.193   9.240
26321SOL    HW280971   5.836   7.044   9.227
26322SOL     OW80972   6.260   6.067   8.715
26322SOL    HW180973   6.216   5.990   8.674
26322SOL    HW280974   6.278   6.126   8.639
26323SOL     OW80975   6.512   7.277   8.915
26323SOL    HW180976   6.504   7.233   8.829
26323SOL    HW280977   6.472   7.363   8.897
26324SOL     OW80978   6.030   6.059   7.648
26324SOL    HW180979   6.096   6.130   7.652
26324SOL    HW280980   5.948   6.111   7.637
26325SOL     OW80981   5.701   6.710   8.924
26325SOL    HW180982   5.708   6.652   9.003
26325SOL    HW280983   5.718   6.649   8.849
26326SOL     OW80984   6.912   6.621   8.681
26326SOL    HW180985   6.924   6.561   8.605
26326SOL    HW280986   6.851   6.687   8.644
26327SOL     OW80987   6.900   6.443   7.748
26327SOL    HW180988   6.818   6.413   7.790
26327SOL    HW280989   6.876   6.444   7.653
26328SOL     OW80990   7.344   7.331   8.578
26328SOL    HW180991   7.419   7.353   8.519
26328SOL    HW280992   7.332   7.235   8.559
26329SOL     OW80993   6.829   7.315   8.566
26329SOL    HW180994   6.916   7.333   8.527
26329SOL    HW280995   6.833   7.218   8.577
26330SOL     OW80996   5.690   6.836   8.479
26330SOL    HW180997   5.655   6.852   8.569
26330SOL    HW280998   5.615   6.791   8.436
26331SOL     OW80999   6.278   7.227   9.185
26331SOL    HW181000   6.228   7.310   9.173
26331SOL    HW281001   6.349   7.236   9.120
26332SOL     OW81002   7.262   5.729   7.938
26332SOL    HW181003   7.342   5.717   7.884
26332SOL    HW281004   7.264   5.649   7.995
26333SOL     OW81005   6.952   7.160   7.934
26333SOL    HW181006   7.016   7.176   7.863
26333SOL    HW281007   6.914   7.248   7.949
26334SOL     OW81008   5.726   7.384   9.283
26334SOL    HW181009   5.688   7.311   9.337
26334SOL    HW281010   5.769   7.436   9.352
26335SOL     OW81011   6.833   6.507   8.111
26335SOL    HW181012   6.912   6.454   8.130
26335SOL    HW281013   6.872   6.585   8.067
26336SOL     OW81014   6.402   6.851   8.873
26336SOL    HW181015   6.369   6.892   8.956
26336SOL    HW281016   6.332   6.877   8.812
26337SOL     OW81017   6.253   7.194   7.605
26337SOL    HW181018   6.269   7.203   7.509
26337SOL    HW281019   6.199   7.112   7.608
26338SOL     OW81020   7.209   7.307   8.828
26338SOL    HW181021   7.257   7.315   8.744
26338SOL    HW281022   7.205   7.400   8.860
26339SOL     OW81023   7.428   5.756   8.425
26339SOL    HW181024   7.448   5.667   8.389
26339SOL    HW281025   7.342   5.777   8.383
26340SOL     OW81026   5.832   5.901   8.154
26340SOL    HW181027   5.746   5.940   8.128
26340SOL    HW281028   5.830   5.909   8.251
26341SOL     OW81029   6.764   7.223   7.474
26341SOL    HW181030   6.773   7.127   7.486
26341SOL    HW281031   6.701   7.229   7.399
26342SOL     OW81032   6.408   6.592   8.814
26342SOL    HW181033   6.455   6.585   8.730
26342SOL    HW281034   6.413   6.689   8.832
26343SOL     OW81035   6.501   6.501   7.720
26343SOL    HW181036   6.577   6.541   7.674
26343SOL    HW281037   6.539   6.423   7.762
26344SOL     OW81038   7.136   7.219   7.485
26344SOL    HW181039   7.040   7.226   7.480
26344SOL    HW281040   7.161   7.221   7.390
26345SOL     OW81041   5.930   6.860   8.940
26345SOL    HW181042   5.922   6.930   8.874
26345SOL    HW281043   5.846   6.811   8.931
26346SOL     OW81044   7.186   6.895   8.706
26346SOL    HW181045   7.237   6.864   8.783
26346SOL    HW281046   7.129   6.963   8.746
26347SOL     OW81047   6.637   6.701   8.181
26347SOL    HW181048   6.568   6.644   8.218
26347SOL    HW281049   6.699   6.636   8.144
26348SOL     OW81050   6.612   5.811   8.436
26348SOL    HW181051   6.600   5.769   8.348
26348SOL    HW281052   6.613   5.733   8.494
26349SOL     OW81053   6.199   7.068   7.940
26349SOL    HW181054   6.246   7.019   7.871
26349SOL    HW281055   6.126   7.107   7.892
26350SOL     OW81056   7.304   5.952   8.823
26350SOL    HW181057   7.369   6.024   8.816
26350SOL    HW281058   7.348   5.881   8.771
26351SOL     OW81059   5.831   6.969   7.724
26351SOL    HW181060   5.735   6.950   7.715
26351SOL    HW281061   5.839   6.990   7.819
26352SOL     OW81062   5.707   6.575   9.157
26352SOL    HW181063   5.631   6.561   9.218
26352SOL    HW281064   5.784   6.553   9.213
26353SOL     OW81065   6.251   5.766   8.937
26353SOL    HW181066   6.339   5.746   8.899
26353SOL    HW281067   6.275   5.798   9.026
26354SOL     OW81068   5.666   5.903   7.462
26354SOL    HW181069   5.581   5.904   7.414
26354SOL    HW281070   5.704   5.986   7.429
26355SOL     OW81071   7.036   6.443   8.840
26355SOL    HW181072   6.995   6.507   8.778
26355SOL    HW281073   7.130   6.464   8.828
26356SOL     OW81074   5.640   5.757   7.754
26356SOL    HW181075   5.622   5.828   7.690
26356SOL    HW281076   5.727   5.725   7.722
26357SOL     OW81077   6.792   6.944   7.557
26357SOL    HW181078   6.710   6.893   7.559
26357SOL    HW281079   6.815   6.948   7.652
26358SOL     OW81080   7.092   7.363   8.415
26358SOL    HW181081   7.128   7.398   8.333
26358SOL    HW281082   7.171   7.338   8.464
26359SOL     OW81083   6.317   6.127   9.127
26359SOL    HW181084   6.351   6.183   9.198
26359SOL    HW281085   6.327   6.037   9.161
26360SOL     OW81086   7.042   6.768   9.076
26360SOL    HW181087   7.039   6.771   9.175
26360SOL    HW281088   7.136   6.788   9.060
26361SOL     OW81089   5.959   7.319   9.014
26361SOL    HW181090   5.872   7.360   8.999
26361SOL    HW281091   5.933   7.234   9.053
26362SOL     OW81092   7.283   6.475   8.693
26362SOL    HW181093   7.258   6.384   8.668
26362SOL    HW281094   7.242   6.530   8.624
26363SOL     OW81095   6.792   5.911   7.927
26363SOL    HW181096   6.857   5.839   7.920
26363SOL    HW281097   6.831   5.965   7.999
26364SOL     OW81098   6.176   6.334   8.113
26364SOL    HW181099   6.210   6.424   8.099
26364SOL    HW281100   6.113   6.324   8.039
26365SOL     OW81101   7.357   5.961   9.085
26365SOL    HW181102   7.331   5.965   8.992
26365SOL    HW281103   7.279   5.918   9.125
26366SOL     OW81104   7.318   6.524   8.953
26366SOL    HW181105   7.329   6.620   8.956
26366SOL    HW281106   7.325   6.506   8.857
26367SOL     OW81107   6.438   6.948   7.475
26367SOL    HW181108   6.420   6.970   7.568
26367SOL    HW281109   6.468   7.031   7.436
26368SOL     OW81110   6.237   7.386   8.405
26368SOL    HW181111   6.219   7.476   8.372
26368SOL    HW281112   6.329   7.370   8.380
26369SOL     OW81113   6.459   6.524   8.307
26369SOL    HW181114   6.514   6.458   8.351
26369SOL    HW281115   6.441   6.588   8.378
26370SOL     OW81116   6.693   6.605   7.559
26370SOL    HW181117   6.652   6.648   7.482
26370SOL    HW281118   6.744   6.534   7.516
26371SOL     OW81119   7.449   7.150   8.287
26371SOL    HW181120   7.355   7.142   8.267
26371SOL    HW281121   7.465   7.077   8.346
26372SOL     OW81122   5.823   6.899   9.319
26372SOL    HW181123   5.744   6.848   9.301
26372SOL    HW281124   5.817   6.912   9.416
26373SOL     OW81125   5.674   6.837   8.101
26373SOL    HW181126   5.679   6.776   8.175
26373SOL    HW281127   5.730   6.793   8.036
26374SOL     OW81128   6.257   6.983   9.063
26374SOL    HW181129   6.183   6.929   9.098
26374SOL    HW281130   6.244   7.066   9.113
26375SOL     OW81131   7.407   5.752   8.685
26375SOL    HW181132   7.406   5.655   8.685
26375SOL    HW281133   7.413   5.769   8.588
26376SOL     OW81134   6.040   6.011   7.996
26376SOL    HW181135   6.066   5.940   7.935
26376SOL    HW281136   5.978   5.969   8.057
26377SOL     OW81137   7.297   7.076   8.528
26377SOL    HW181138   7.216   7.042   8.488
26377SOL    HW281139   7.306   7.015   8.603
26378SOL     OW81140   5.914   6.115   8.739
26378SOL    HW181141   5.988   6.078   8.789
26378SOL    HW281142   5.933   6.088   8.647
26379SOL     OW81143   6.404   7.179   8.126
26379SOL    HW181144   6.397   7.214   8.036
26379SOL    HW281145   6.321   7.130   8.135
26380SOL     OW81146   7.017   5.825   8.539
26380SOL    HW181147   7.045   5.741   8.579
26380SOL    HW281148   6.974   5.871   8.614
26381SOL     OW81149   6.599   5.580   8.607
26381SOL    HW181150   6.546   5.505   8.576
26381SOL    HW281151   6.690   5.543   8.602
26382SOL     OW81152   6.380   6.922   7.761
26382SOL    HW181153   6.347   6.831   7.759
26382SOL    HW281154   6.451   6.916   7.826
26383SOL     OW81155   6.185   7.141   8.713
26383SOL    HW181156   6.185   7.224   8.764
26383SOL    HW281157   6.278   7.138   8.685
26384SOL     OW81158   6.897   5.617   7.641
26384SOL    HW181159   6.911   5.556   7.568
26384SOL    HW281160   6.807   5.590   7.670
26385SOL     OW81161   6.896   6.061   8.143
26385SOL    HW181162   6.838   6.140   8.140
26385SOL    HW281163   6.870   6.021   8.228
26386SOL     OW81164   7.190   5.790   8.307
26386SOL    HW181165   7.115   5.800   8.367
26386SOL    HW281166   7.191   5.874   8.258
26387SOL     OW81167   5.635   6.656   7.755
26387SOL    HW181168   5.728   6.645   7.727
26387SOL    HW281169   5.609   6.563   7.770
26388SOL     OW81170   6.459   7.227   7.777
26388SOL    HW181171   6.383   7.211   7.718
26388SOL    HW281172   6.437   7.310   7.824
26389SOL     OW81173   5.822   6.232   9.452
26389SOL    HW181174   5.728   6.226   9.473
26389SOL    HW281175   5.826   6.212   9.358
26390SOL     OW81176   5.815   5.851  10.268
26390SOL    HW181177   5.835   5.838  10.363
26390SOL    HW281178   5.724   5.814  10.266
26391SOL     OW81179   5.640   5.965   9.967
26391SOL    HW181180   5.555   5.991  10.007
26391SOL    HW281181   5.610   5.897   9.906
26392SOL     OW81182   6.156   6.897  10.463
26392SOL    HW181183   6.061   6.876  10.463
26392SOL    HW281184   6.159   6.973  10.523
26393SOL     OW81185   7.139   7.110  10.025
26393SOL    HW181186   7.103   7.080  10.111
26393SOL    HW281187   7.064   7.101   9.964
26394SOL     OW81188   6.688   6.277   9.995
26394SOL    HW181189   6.738   6.361   9.985
26394SOL    HW281190   6.646   6.289  10.081
26395SOL     OW81191   7.349   6.192   9.548
26395SOL    HW181192   7.329   6.181   9.453
26395SOL    HW281193   7.301   6.117   9.586
26396SOL     OW81194   6.349   6.756  10.344
26396SOL    HW181195   6.280   6.804  10.395
26396SOL    HW281196   6.378   6.828  10.286
26397SOL     OW81197   6.463   6.334   0.012
26397SOL    HW181198   6.444   6.402   0.079
26397SOL    HW281199   6.496   6.389  11.039
26398SOL     OW81200   6.280   6.616   9.975
26398SOL    HW181201   6.342   6.596  10.048
26398SOL    HW281202   6.207   6.660  10.021
26399SOL     OW81203   5.896   7.025  10.385
26399SOL    HW181204   5.830   6.972  10.337
26399SOL    HW281205   5.952   7.062  10.315
26400SOL     OW81206   7.054   7.087  10.661
26400SOL    HW181207   7.112   7.165  10.670
26400SOL    HW281208   6.989   7.103  10.732
26401SOL     OW81209   6.037   5.965  10.774
26401SOL    HW181210   6.109   5.904  10.795
26401SOL    HW281211   5.957   5.915  10.798
26402SOL     OW81212   7.207   6.034  10.049
26402SOL    HW181213   7.142   6.080   9.994
26402SOL    HW281214   7.201   6.085  10.131
26403SOL     OW81215   5.818   7.304   9.795
26403SOL    HW181216   5.862   7.383   9.830
26403SOL    HW281217   5.868   7.289   9.713
26404SOL     OW81218   5.828   7.012   9.842
26404SOL    HW181219   5.828   7.108   9.855
26404SOL    HW281220   5.761   6.982   9.904
26405SOL     OW81221   5.852   6.669  10.197
26405SOL    HW181222   5.855   6.600  10.265
26405SOL    HW281223   5.801   6.738  10.244
26406SOL     OW81224   6.184   7.391  10.724
26406SOL    HW181225   6.111   7.364  10.783
26406SOL    HW281226   6.202   7.482  10.752
26407SOL     OW81227   6.149   6.575   9.423
26407SOL    HW181228   6.200   6.625   9.355
26407SOL    HW281229   6.192   6.610   9.504
26408SOL     OW81230   7.175   5.702  10.793
26408SOL    HW181231   7.180   5.790  10.752
26408SOL    HW281232   7.173   5.720  10.887
26409SOL     OW81233   5.696   6.237   9.880
26409SOL    HW181234   5.661   6.150   9.903
26409SOL    HW281235   5.691   6.286   9.965
26410SOL     OW81236   7.432   7.323   9.656
26410SOL    HW181237   7.503   7.305   9.721
26410SOL    HW281238   7.450   7.417   9.636
26411SOL     OW81239   5.646   7.176   9.434
26411SOL    HW181240   5.624   7.083   9.449
26411SOL    HW281241   5.617   7.218   9.517
26412SOL     OW81242   7.274   6.496   9.920
26412SOL    HW181243   7.362   6.472   9.889
26412SOL    HW281244   7.243   6.553   9.848
26413SOL     OW81245   7.224   6.715   9.747
26413SOL    HW181246   7.317   6.708   9.718
26413SOL    HW281247   7.234   6.778   9.823
26414SOL     OW81248   5.698   6.320  10.911
26414SOL    HW181249   5.789   6.352  10.919
26414SOL    HW281250   5.648   6.401  10.923
26415SOL     OW81251   6.185   7.000  10.065
26415SOL    HW181252   6.143   6.911  10.074
26415SOL    HW281253   6.167   7.020   9.972
26416SOL     OW81254   6.879   6.830  10.749
26416SOL    HW181255   6.902   6.759  10.686
26416SOL    HW281256   6.934   6.808  10.826
26417SOL     OW81257   6.424   5.587   9.820
26417SOL    HW181258   6.450   5.680   9.813
26417SOL    HW281259   6.328   5.594   9.830
26418SOL     OW81260   5.770   6.515  10.482
26418SOL    HW181261   5.847   6.533  10.538
26418SOL    HW281262   5.701   6.497  10.547
26419SOL     OW81263   7.129   6.558   9.497
26419SOL    HW181264   7.048   6.515   9.530
26419SOL    HW281265   7.163   6.602   9.576
26420SOL     OW81266   6.811   7.401  10.912
26420SOL    HW181267   6.789   7.461  10.840
26420SOL    HW281268   6.805   7.314  10.869
26421SOL     OW81269   5.920   5.820   0.032
26421SOL    HW181270   5.975   5.895   0.058
26421SOL    HW281271   5.831   5.861   0.032
26422SOL     OW81272   7.049   7.001  10.266
26422SOL    HW181273   6.986   7.016  10.340
26422SOL    HW281274   7.025   6.910  10.238
26423SOL     OW81275   7.236   7.326   9.896
26423SOL    HW181276   7.221   7.282   9.811
26423SOL    HW281277   7.214   7.255   9.959
26424SOL     OW81278   6.175   6.302   9.580
26424SOL    HW181279   6.180   6.389   9.536
26424SOL    HW281280   6.103   6.315   9.644
26425SOL     OW81281   6.864   5.949  10.244
26425SOL    HW181282   6.775   5.911  10.255
26425SOL    HW281283   6.915   5.900  10.310
26426SOL     OW81284   7.162   7.228   9.621
26426SOL    HW181285   7.256   7.251   9.625
26426SOL    HW281286   7.152   7.217   9.525
26427SOL     OW81287   6.404   6.198  10.776
26427SOL    HW181288   6.370   6.173  10.864
26427SOL    HW281289   6.355   6.137  10.717
26428SOL     OW81290   6.561   6.465  10.892
26428SOL    HW181291   6.597   6.391  10.841
26428SOL    HW281292   6.511   6.516  10.824
26429SOL     OW81293   6.553   5.985  10.549
26429SOL    HW181294   6.464   6.008  10.578
26429SOL    HW281295   6.537   5.920  10.480
26430SOL     OW81296   6.612   6.274   9.718
26430SOL    HW181297   6.633   6.289   9.812
26430SOL    HW281298   6.530   6.221   9.724
26431SOL     OW81299   5.695   6.389  10.103
26431SOL    HW181300   5.778   6.394  10.153
26431SOL    HW281301   5.655   6.475  10.123
26432SOL     OW81302   5.700   7.434  10.873
26432SOL    HW181303   5.701   7.372  10.947
26432SOL    HW281304   5.610   7.423  10.839
26433SOL     OW81305   6.465   5.955   9.524
26433SOL    HW181306   6.504   6.008   9.453
26433SOL    HW281307   6.504   5.869   9.507
26434SOL     OW81308   6.950   6.733   9.879
26434SOL    HW181309   7.027   6.729   9.820
26434SOL    HW281310   6.893   6.794   9.830
26435SOL     OW81311   6.133   5.807  10.207
26435SOL    HW181312   6.140   5.802  10.305
26435SOL    HW281313   6.160   5.899  10.190
26436SOL     OW81314   6.570   7.032   9.787
26436SOL    HW181315   6.530   7.096   9.725
26436SOL    HW281316   6.576   7.084   9.869
26437SOL     OW81317   5.934   7.399  10.150
26437SOL    HW181318   5.969   7.309  10.168
26437SOL    HW281319   6.004   7.454  10.188
26438SOL     OW81320   7.400   6.642  10.157
26438SOL    HW181321   7.336   6.618  10.089
26438SOL    HW281322   7.349   6.631  10.239
26439SOL     OW81323   6.816   7.151  10.797
26439SOL    HW181324   6.794   7.088  10.866
26439SOL    HW281325   6.758   7.120  10.727
26440SOL     OW81326   5.890   6.536   9.556
26440SOL    HW181327   5.971   6.559   9.509
26440SOL    HW281328   5.864   6.453   9.512
26441SOL     OW81329   7.065   6.349  10.034
26441SOL    HW181330   7.079   6.311  10.122
26441SOL    HW281331   7.149   6.395  10.016
26442SOL     OW81332   6.095   6.852  11.055
26442SOL    HW181333   6.060   6.861  10.963
26442SOL    HW281334   6.028   6.795  11.093
26443SOL     OW81335   6.679   7.358   9.554
26443SOL    HW181336   6.606   7.310   9.596
26443SOL    HW281337   6.697   7.302   9.477
26444SOL     OW81338   5.765   5.870  10.782
26444SOL    HW181339   5.702   5.940  10.803
26444SOL    HW281340   5.735   5.797  10.838
26445SOL     OW81341   7.203   6.949   9.402
26445SOL    HW181342   7.165   7.033   9.372
26445SOL    HW281343   7.144   6.881   9.363
26446SOL     OW81344   6.038   7.319   9.635
26446SOL    HW181345   6.091   7.370   9.699
26446SOL    HW281346   6.105   7.285   9.574
26447SOL     OW81347   6.968   5.697   9.744
26447SOL    HW181348   6.965   5.657   9.656
26447SOL    HW281349   7.064   5.712   9.757
26448SOL     OW81350   5.819   7.392  10.541
26448SOL    HW181351   5.876   7.329  10.588
26448SOL    HW281352   5.810   7.348  10.456
26449SOL     OW81353   6.544   7.297  10.184
26449SOL    HW181354   6.620   7.241  10.204
26449SOL    HW281355   6.498   7.242  10.116
26450SOL     OW81356   5.962   6.260   9.774
26450SOL    HW181357   5.979   6.165   9.776
26450SOL    HW281358   5.869   6.265   9.801
26451SOL     OW81359   6.207   5.720   9.415
26451SOL    HW181360   6.288   5.674   9.437
26451SOL    HW281361   6.166   5.661   9.348
26452SOL     OW81362   6.362   5.835  11.029
26452SOL    HW181363   6.434   5.805  11.086
26452SOL    HW281364   6.303   5.880  11.091
26453SOL     OW81365   6.480   7.120  10.514
26453SOL    HW181366   6.461   7.079  10.428
26453SOL    HW281367   6.542   7.058  10.556
26454SOL     OW81368   6.929   6.176  10.725
26454SOL    HW181369   6.982   6.146  10.800
26454SOL    HW281370   6.967   6.264  10.709
26455SOL     OW81371   6.400   7.009  10.254
26455SOL    HW181372   6.487   6.995  10.211
26455SOL    HW281373   6.338   7.000  10.180
26456SOL     OW81374   6.526   6.106  10.221
26456SOL    HW181375   6.492   6.093  10.130
26456SOL    HW281376   6.551   6.016  10.244
26457SOL     OW81377   6.153   5.637   9.815
26457SOL    HW181378   6.076   5.648   9.874
26457SOL    HW281379   6.140   5.714   9.756
26458SOL     OW81380   7.032   6.755   9.334
26458SOL    HW181381   7.066   6.683   9.391
26458SOL    HW281382   6.950   6.782   9.378
26459SOL     OW81383   5.863   5.635   9.506
26459SOL    HW181384   5.926   5.703   9.481
26459SOL    HW281385   5.925   5.565   9.538
26460SOL     OW81386   6.509   5.843   9.807
26460SOL    HW181387   6.494   5.891   9.723
26460SOL    HW281388   6.605   5.856   9.817
26461SOL     OW81389   6.683   6.271  10.747
26461SOL    HW181390   6.624   6.195  10.759
26461SOL    HW281391   6.772   6.231  10.748
26462SOL     OW81392   6.803   7.160  10.126
26462SOL    HW181393   6.809   7.214  10.046
26462SOL    HW281394   6.882   7.186  10.175
26463SOL     OW81395   6.052   6.752  10.045
26463SOL    HW181396   5.978   6.720  10.102
26463SOL    HW281397   6.019   6.725   9.957
26464SOL     OW81398   6.840   7.391   9.924
26464SOL    HW181399   6.886   7.460   9.871
26464SOL    HW281400   6.786   7.444   9.983
26465SOL     OW81401   6.642   6.115   9.340
26465SOL    HW181402   6.598   6.200   9.328
26465SOL    HW281403   6.714   6.135   9.403
26466SOL     OW81404   5.662   6.137  10.706
26466SOL    HW181405   5.758   6.131  10.691
26466SOL    HW281406   5.657   6.215  10.766
26467SOL     OW81407   6.157   5.801  10.474
26467SOL    HW181408   6.196   5.733  10.530
26467SOL    HW281409   6.066   5.804  10.507
26468SOL     OW81410   6.449   6.049   9.981
26468SOL    HW181411   6.414   6.098   9.905
26468SOL    HW281412   6.469   5.962   9.942
26469SOL     OW81413   6.616   5.664  10.075
26469SOL    HW181414   6.573   5.644   9.991
26469SOL    HW281415   6.593   5.586  10.128
26470SOL     OW81416   7.003   6.752  10.191
26470SOL    HW181417   6.952   6.673  10.212
26470SOL    HW281418   6.995   6.755  10.094
26471SOL     OW81419   7.091   6.175  10.272
26471SOL    HW181420   7.027   6.105  10.293
26471SOL    HW281421   7.143   6.183  10.354
26472SOL     OW81422   7.435   6.409   9.697
26472SOL    HW181423   7.486   6.353   9.758
26472SOL    HW281424   7.413   6.345   9.627
26473SOL     OW81425   6.078   7.021   9.445
26473SOL    HW181426   5.997   6.999   9.494
26473SOL    HW281427   6.063   6.975   9.362
26474SOL     OW81428   7.267   6.870   9.963
26474SOL    HW181429   7.364   6.877   9.974
26474SOL    HW281430   7.234   6.958   9.989
26475SOL     OW81431   6.988   6.177   9.374
26475SOL    HW181432   6.943   6.152   9.457
26475SOL    HW281433   7.079   6.149   9.391
26476SOL     OW81434   6.102   5.831   9.634
26476SOL    HW181435   6.145   5.793   9.555
26476SOL    HW281436   6.074   5.917   9.597
26477SOL     OW81437   7.347   6.825  10.862
26477SOL    HW181438   7.438   6.801  10.885
26477SOL    HW281439   7.343   6.918  10.891
26478SOL     OW81440   6.637   6.964  10.685
26478SOL    HW181441   6.562   6.912  10.718
26478SOL    HW281442   6.712   6.904  10.698
26479SOL     OW81443   6.697   6.820  10.418
26479SOL    HW181444   6.611   6.817  10.461
26479SOL    HW281445   6.675   6.858  10.331
26480SOL     OW81446   7.203   6.680  10.383
26480SOL    HW181447   7.215   6.744  10.456
26480SOL    HW281448   7.139   6.726  10.328
26481SOL     OW81449   6.499   5.700  10.676
26481SOL    HW181450   6.535   5.667  10.592
26481SOL    HW281451   6.578   5.733  10.722
26482SOL     OW81452   6.290   6.647   9.655
26482SOL    HW181453   6.280   6.632   9.750
26482SOL    HW281454   6.364   6.586   9.633
26483SOL     OW81455   6.017   6.405  10.586
26483SOL    HW181456   6.089   6.408  10.653
26483SOL    HW281457   5.982   6.315  10.599
26484SOL     OW81458   6.833   5.956  10.583
26484SOL    HW181459   6.865   6.037  10.626
26484SOL    HW281460   6.748   5.984  10.544
26485SOL     OW81461   5.660   7.165  10.635
26485SOL    HW181462   5.654   7.253  10.598
26485SOL    HW281463   5.758   7.152  10.638
26486SOL     OW81464   5.959   6.683   9.799
26486SOL    HW181465   5.958   6.754   9.734
26486SOL    HW281466   5.939   6.605   9.744
26487SOL     OW81467   6.113   6.126  10.150
26487SOL    HW181468   6.141   6.200  10.092
26487SOL    HW281469   6.168   6.144  10.229
26488SOL     OW81470   6.808   6.915   9.706
26488SOL    HW181471   6.850   6.996   9.742
26488SOL    HW281472   6.716   6.927   9.735
26489SOL     OW81473   6.871   7.044  10.468
26489SOL    HW181474   6.928   7.048  10.547
26489SOL    HW281475   6.813   6.968  10.486
26490SOL     OW81476   7.164   6.201   9.787
26490SOL    HW181477   7.117   6.264   9.842
26490SOL    HW281478   7.202   6.257   9.719
26491SOL     OW81479   5.927   7.152  10.614
26491SOL    HW181480   5.926   7.102  10.529
26491SOL    HW281481   5.992   7.100  10.664
26492SOL     OW81482   6.030   6.312  10.926
26492SOL    HW181483   6.097   6.349  10.865
26492SOL    HW281484   6.041   6.217  10.913
26493SOL     OW81485   7.217   6.346  11.003
26493SOL    HW181486   7.146   6.411  11.004
26493SOL    HW281487   7.284   6.393  10.950
26494SOL     OW81488   6.156   6.490  10.359
26494SOL    HW181489   6.192   6.579  10.355
26494SOL    HW281490   6.113   6.487  10.447
26495SOL     OW81491   6.923   6.440  10.344
26495SOL    HW181492   6.850   6.404  10.291
26495SOL    HW281493   6.988   6.369  10.340
26496SOL     OW81494   6.807   6.113   9.581
26496SOL    HW181495   6.814   6.039   9.643
26496SOL    HW281496   6.740   6.168   9.626
26497SOL     OW81497   5.869   5.801  10.533
26497SOL    HW181498   5.830   5.832  10.616
26497SOL    HW281499   5.854   5.704  10.540
26498SOL     OW81500   5.634   6.892  10.583
26498SOL    HW181501   5.660   6.835  10.657
26498SOL    HW281502   5.638   6.982  10.620
26499SOL     OW81503   6.286   6.228  10.344
26499SOL    HW181504   6.374   6.224  10.303
26499SOL    HW281505   6.258   6.321  10.330
26500SOL     OW81506   5.911   5.671   9.921
26500SOL    HW181507   5.837   5.725   9.948
26500SOL    HW281508   5.922   5.613   9.999
26501SOL     OW81509   7.174   5.963   9.663
26501SOL    HW181510   7.208   5.894   9.722
26501SOL    HW281511   7.168   6.041   9.723
26502SOL     OW81512   6.624   6.348  10.273
26502SOL    HW181513   6.614   6.367  10.369
26502SOL    HW281514   6.604   6.253  10.269
26503SOL     OW81515   6.583   7.136  10.965
26503SOL    HW181516   6.559   7.202  10.896
26503SOL    HW281517   6.539   7.057  10.931
26504SOL     OW81518   7.434   7.093  10.899
26504SOL    HW181519   7.461   7.107  10.807
26504SOL    HW281520   7.515   7.114  10.947
26505SOL     OW81521   5.946   6.492  11.087
26505SOL    HW181522   6.028   6.516   0.032
26505SOL    HW281523   5.978   6.423  11.025
26506SOL     OW81524   7.088   5.837   9.438
26506SOL    HW181525   7.009   5.787   9.466
26506SOL    HW281526   7.122   5.875   9.521
26507SOL     OW81527   6.867   6.418   9.334
26507SOL    HW181528   6.914   6.334   9.349
26507SOL    HW281529   6.902   6.443   9.246
26508SOL     OW81530   6.639   6.947  10.164
26508SOL    HW181531   6.652   6.874  10.100
26508SOL    HW281532   6.711   7.010  10.144
26509SOL     OW81533   5.927   6.366  10.257
26509SOL    HW181534   6.013   6.403  10.285
26509SOL    HW281535   5.885   6.346  10.342
26510SOL     OW81536   5.899   6.095  10.325
26510SOL    HW181537   5.894   6.001  10.303
26510SOL    HW281538   5.963   6.133  10.261
26511SOL     OW81539   6.739   5.792  10.776
26511SOL    HW181540   6.768   5.849  10.847
26511SOL    HW281541   6.771   5.840  10.697
26512SOL     OW81542   5.584   6.907   9.507
26512SOL    HW181543   5.492   6.918   9.472
26512SOL    HW281544   5.582   6.817   9.543
26513SOL     OW81545   5.681   7.376  10.248
26513SOL    HW181546   5.653   7.299  10.193
26513SOL    HW281547   5.774   7.388  10.218
26514SOL     OW81548   6.065   7.177  10.236
26514SOL    HW181549   6.136   7.234  10.271
26514SOL    HW281550   6.116   7.109  10.189
26515SOL     OW81551   6.566   6.388  10.537
26515SOL    HW181552   6.628   6.351  10.602
26515SOL    HW281553   6.482   6.357  10.572
26516SOL     OW81554   5.615   6.099  10.432
26516SOL    HW181555   5.699   6.105  10.385
26516SOL    HW281556   5.641   6.115  10.524
26517SOL     OW81557   6.372   6.142   9.706
26517SOL    HW181558   6.396   6.083   9.632
26517SOL    HW281559   6.308   6.202   9.664
26518SOL     OW81560   7.239   6.203  10.498
26518SOL    HW181561   7.226   6.136  10.566
26518SOL    HW281562   7.325   6.175  10.459
26519SOL     OW81563   5.824   7.134  11.035
26519SOL    HW181564   5.770   7.156   0.012
26519SOL    HW281565   5.868   7.053  11.061
26520SOL     OW81566   6.280   6.064  10.577
26520SOL    HW181567   6.230   5.988  10.546
26520SOL    HW281568   6.270   6.129  10.505
26521SOL     OW81569   6.517   7.286  10.750
26521SOL    HW181570   6.499   7.249  10.662
26521SOL    HW281571   6.497   7.380  10.740
26522SOL     OW81572   6.026   6.060   9.522
26522SOL    HW181573   6.094   6.130   9.522
26522SOL    HW281574   5.946   6.113   9.506
26523SOL     OW81575   5.709   6.709  10.780
26523SOL    HW181576   5.726   6.670  10.868
26523SOL    HW281577   5.797   6.747  10.759
26524SOL     OW81578   6.896   6.632  10.541
26524SOL    HW181579   6.915   6.567  10.470
26524SOL    HW281580   6.825   6.685  10.501
26525SOL     OW81581   6.886   6.451   9.596
26525SOL    HW181582   6.804   6.419   9.635
26525SOL    HW281583   6.867   6.449   9.500
26526SOL     OW81584   7.344   7.342  10.435
26526SOL    HW181585   7.415   7.361  10.370
26526SOL    HW281586   7.336   7.244  10.427
26527SOL     OW81587   6.825   7.309  10.449
26527SOL    HW181588   6.914   7.329  10.416
26527SOL    HW281589   6.828   7.211  10.454
26528SOL     OW81590   5.701   6.844  10.331
26528SOL    HW181591   5.690   6.871  10.425
26528SOL    HW281592   5.617   6.798  10.316
26529SOL     OW81593   7.260   5.727   9.797
26529SOL    HW181594   7.337   5.714   9.739
26529SOL    HW281595   7.259   5.644   9.849
26530SOL     OW81596   6.948   7.155   9.806
26530SOL    HW181597   7.008   7.170   9.731
26530SOL    HW281598   6.909   7.243   9.820
26531SOL     OW81599   6.842   6.499   9.974
26531SOL    HW181600   6.924   6.450   9.994
26531SOL    HW281601   6.877   6.579   9.931
26532SOL     OW81602   6.369   6.843  10.741
26532SOL    HW181603   6.350   6.891  10.823
26532SOL    HW281604   6.285   6.854  10.693
26533SOL     OW81605   6.251   7.218   9.463
26533SOL    HW181606   6.271   7.222   9.367
26533SOL    HW281607   6.194   7.137   9.466
26534SOL     OW81608   7.210   7.300  10.680
26534SOL    HW181609   7.262   7.321  10.600
26534SOL    HW281610   7.197   7.388  10.719
26535SOL     OW81611   7.434   5.755  10.272
26535SOL    HW181612   7.455   5.663  10.247
26535SOL    HW281613   7.345   5.770  10.234
26536SOL     OW81614   6.772   7.216   9.339
26536SOL    HW181615   6.789   7.123   9.363
26536SOL    HW281616   6.704   7.208   9.269
26537SOL     OW81617   6.408   6.579  10.704
26537SOL    HW181618   6.446   6.580  10.615
26537SOL    HW281619   6.400   6.674  10.724
26538SOL     OW81620   6.489   6.491   9.591
26538SOL    HW181621   6.561   6.528   9.536
26538SOL    HW281622   6.533   6.414   9.632
26539SOL     OW81623   7.135   7.217   9.343
26539SOL    HW181624   7.039   7.224   9.333
26539SOL    HW281625   7.166   7.224   9.250
26540SOL     OW81626   7.201   6.886  10.572
26540SOL    HW181627   7.255   6.863  10.649
26540SOL    HW281628   7.141   6.954  10.610
26541SOL     OW81629   6.639   6.709  10.027
26541SOL    HW181630   6.563   6.658  10.058
26541SOL    HW281631   6.700   6.638  10.000
26542SOL     OW81632   6.613   5.824  10.297
26542SOL    HW181633   6.608   5.781  10.209
26542SOL    HW281634   6.613   5.746  10.355
26543SOL     OW81635   6.210   7.092   9.790
26543SOL    HW181636   6.253   7.040   9.720
26543SOL    HW281637   6.125   7.115   9.749
26544SOL     OW81638   7.285   5.977  10.702
26544SOL    HW181639   7.354   6.045  10.704
26544SOL    HW281640   7.325   5.912  10.639
26545SOL     OW81641   5.834   6.968   9.581
26545SOL    HW181642   5.737   6.959   9.569
26545SOL    HW281643   5.839   6.983   9.678
26546SOL     OW81644   5.706   6.586  11.031
26546SOL    HW181645   5.645   6.558  11.099
26546SOL    HW281646   5.793   6.555  11.063
26547SOL     OW81647   6.258   5.782  10.784
26547SOL    HW181648   6.343   5.767  10.738
26547SOL    HW281649   6.288   5.803  10.874
26548SOL     OW81650   5.698   5.925   9.323
26548SOL    HW181651   5.602   5.932   9.321
26548SOL    HW281652   5.724   6.004   9.271
26549SOL     OW81653   7.025   6.440  10.726
26549SOL    HW181654   6.971   6.505  10.677
26549SOL    HW281655   7.114   6.462  10.696
26550SOL     OW81656   5.637   5.747   9.610
26550SOL    HW181657   5.628   5.831   9.565
26550SOL    HW281658   5.722   5.714   9.575
26551SOL     OW81659   6.787   6.946   9.430
26551SOL    HW181660   6.708   6.891   9.432
26551SOL    HW281661   6.815   6.943   9.524
26552SOL     OW81662   6.223   6.395  10.759
26552SOL    HW181663   6.279   6.474  10.752
26552SOL    HW281664   6.290   6.325  10.768
26553SOL     OW81665   7.099   7.345  10.295
26553SOL    HW181666   7.130   7.389  10.215
26553SOL    HW281667   7.177   7.347  10.353
26554SOL     OW81668   6.304   6.130  11.027
26554SOL    HW181669   6.340   6.207  11.073
26554SOL    HW281670   6.369   6.061  11.045
26555SOL     OW81671   5.964   7.317  10.877
26555SOL    HW181672   5.885   7.371  10.857
26555SOL    HW281673   5.926   7.243  10.927
26556SOL     OW81674   7.278   6.472  10.581
26556SOL    HW181675   7.274   6.380  10.551
26556SOL    HW281676   7.252   6.523  10.503
26557SOL     OW81677   6.781   5.912   9.772
26557SOL    HW181678   6.847   5.841   9.766
26557SOL    HW281679   6.815   5.964   9.848
26558SOL     OW81680   6.188   6.333   9.967
26558SOL    HW181681   6.225   6.422   9.962
26558SOL    HW281682   6.110   6.340   9.909
26559SOL     OW81683   7.363   5.894  10.950
26559SOL    HW181684   7.329   5.918  10.862
26559SOL    HW281685   7.286   5.906  11.006
26560SOL     OW81686   7.336   6.539  10.834
26560SOL    HW181687   7.335   6.636  10.836
26560SOL    HW281688   7.333   6.520  10.738
26561SOL     OW81689   6.433   6.953   9.336
26561SOL    HW181690   6.405   6.965   9.428
26561SOL    HW281691   6.462   7.041   9.308
26562SOL     OW81692   6.251   7.379  10.235
26562SOL    HW181693   6.261   7.474  10.223
26562SOL    HW281694   6.341   7.345  10.221
26563SOL     OW81695   6.461   6.541  10.166
26563SOL    HW181696   6.513   6.467  10.201
26563SOL    HW281697   6.443   6.595  10.245
26564SOL     OW81698   6.665   6.575   9.406
26564SOL    HW181699   6.642   6.634   9.332
26564SOL    HW281700   6.732   6.518   9.365
26565SOL     OW81701   7.435   7.134  10.168
26565SOL    HW181702   7.359   7.128  10.110
26565SOL    HW281703   7.406   7.088  10.249
26566SOL     OW81704   5.672   6.841   9.996
26566SOL    HW181705   5.665   6.782  10.073
26566SOL    HW281706   5.750   6.804   9.952
26567SOL     OW81707   6.279   7.014  10.937
26567SOL    HW181708   6.213   6.954  10.977
26567SOL    HW281709   6.222   7.082  10.898
26568SOL     OW81710   7.379   5.793  10.538
26568SOL    HW181711   7.411   5.703  10.551
26568SOL    HW281712   7.395   5.804  10.442
26569SOL     OW81713   6.003   5.962   9.885
26569SOL    HW181714   6.019   5.913   9.803
26569SOL    HW281715   6.093   5.980   9.916
26570SOL     OW81716   7.308   7.077  10.408
26570SOL    HW181717   7.221   7.051  10.372
26570SOL    HW281718   7.313   7.017  10.485
26571SOL     OW81719   5.932   6.142  10.597
26571SOL    HW181720   5.986   6.080  10.651
26571SOL    HW281721   5.929   6.101  10.509
26572SOL     OW81722   6.409   7.177   9.981
26572SOL    HW181723   6.391   7.191   9.887
26572SOL    HW281724   6.330   7.128  10.009
26573SOL     OW81725   7.011   5.823  10.432
26573SOL    HW181726   7.052   5.749  10.479
26573SOL    HW281727   6.951   5.862  10.499
26574SOL     OW81728   6.598   5.586  10.444
26574SOL    HW181729   6.548   5.506  10.423
26574SOL    HW281730   6.689   5.551  10.456
26575SOL     OW81731   6.369   6.923   9.618
26575SOL    HW181732   6.339   6.830   9.620
26575SOL    HW281733   6.439   6.922   9.685
26576SOL     OW81734   6.210   7.141  10.606
26576SOL    HW181735   6.203   7.231  10.644
26576SOL    HW281736   6.299   7.140  10.570
26577SOL     OW81737   6.894   5.616   9.473
26577SOL    HW181738   6.910   5.541   9.415
26577SOL    HW281739   6.804   5.595   9.507
26578SOL     OW81740   6.856   6.054   9.988
26578SOL    HW181741   6.802   6.136   9.992
26578SOL    HW281742   6.857   6.023  10.080
26579SOL     OW81743   7.181   5.794  10.183
26579SOL    HW181744   7.104   5.808  10.240
26579SOL    HW281745   7.179   5.872  10.125
26580SOL     OW81746   5.626   6.652   9.612
26580SOL    HW181747   5.719   6.640   9.588
26580SOL    HW281748   5.599   6.562   9.635
26581SOL     OW81749   6.458   7.233   9.636
26581SOL    HW181750   6.379   7.220   9.579
26581SOL    HW281751   6.438   7.316   9.684
26582SOL     OW81752   5.829   8.102   0.152
26582SOL    HW181753   5.743   8.066   0.178
26582SOL    HW281754   5.845   8.064   0.065
26583SOL     OW81755   5.828   7.726   0.994
26583SOL    HW181756   5.848   7.707   1.088
26583SOL    HW281757   5.741   7.681   0.984
26584SOL     OW81758   5.592   7.834   0.646
26584SOL    HW181759   5.509   7.861   0.690
26584SOL    HW281760   5.563   7.757   0.596
26585SOL     OW81761   6.156   8.748   1.196
26585SOL    HW181762   6.063   8.744   1.168
26585SOL    HW281763   6.164   8.840   1.228
26586SOL     OW81764   7.157   8.959   0.724
26586SOL    HW181765   7.111   8.942   0.809
26586SOL    HW281766   7.085   8.955   0.659
26587SOL     OW81767   6.725   8.130   0.719
26587SOL    HW181768   6.752   8.219   0.687
26587SOL    HW281769   6.685   8.150   0.805
26588SOL     OW81770   7.373   8.047   0.224
26588SOL    HW181771   7.321   8.076   0.147
26588SOL    HW281772   7.315   7.979   0.264
26589SOL     OW81773   6.317   8.610   1.022
26589SOL    HW181774   6.258   8.656   1.086
26589SOL    HW281775   6.357   8.687   0.978
26590SOL     OW81776   6.463   8.193   1.796
26590SOL    HW181777   6.444   8.256   1.866
26590SOL    HW281778   6.492   8.251   1.723
26591SOL     OW81779   6.277   8.473   0.636
26591SOL    HW181780   6.342   8.450   0.705
26591SOL    HW281781   6.206   8.517   0.687
26592SOL     OW81782   6.278   8.604   1.808
26592SOL    HW181783   6.321   8.688   1.833
26592SOL    HW281784   6.191   8.633   1.777
26593SOL     OW81785   5.902   8.877   1.075
26593SOL    HW181786   5.829   8.832   1.030
26593SOL    HW281787   5.953   8.920   1.003
26594SOL     OW81788   7.053   8.953   1.365
26594SOL    HW181789   7.112   9.030   1.378
26594SOL    HW281790   6.994   8.961   1.441
26595SOL     OW81791   6.013   7.845   1.522
26595SOL    HW181792   6.092   7.789   1.517
26595SOL    HW281793   5.941   7.785   1.499
26596SOL     OW81794   7.208   7.905   0.741
26596SOL    HW181795   7.121   7.920   0.699
26596SOL    HW281796   7.209   7.976   0.806
26597SOL     OW81797   5.824   9.162   0.491
26597SOL    HW181798   5.858   9.246   0.529
26597SOL    HW281799   5.863   9.164   0.402
26598SOL     OW81800   6.711   8.800   1.658
26598SOL    HW181801   6.759   8.800   1.741
26598SOL    HW281802   6.668   8.713   1.663
26599SOL     OW81803   5.832   8.876   0.527
26599SOL    HW181804   5.834   8.972   0.538
26599SOL    HW281805   5.759   8.851   0.587
26600SOL     OW81806   5.854   8.540   0.907
26600SOL    HW181807   5.855   8.465   0.968
26600SOL    HW281808   5.798   8.604   0.956
26601SOL     OW81809   6.184   9.243   1.415
26601SOL    HW181810   6.110   9.216   1.472
26601SOL    HW281811   6.206   9.332   1.449
26602SOL     OW81812   6.175   8.426   0.148
26602SOL    HW181813   6.218   8.490   0.091
26602SOL    HW281814   6.210   8.454   0.235
26603SOL     OW81815   7.190   7.554   1.497
26603SOL    HW181816   7.179   7.633   1.441
26603SOL    HW281817   7.205   7.594   1.583
26604SOL     OW81818   5.708   8.113   0.565
26604SOL    HW181819   5.678   8.021   0.578
26604SOL    HW281820   5.695   8.154   0.652
26605SOL     OW81821   7.434   9.184   0.363
26605SOL    HW181822   7.498   9.168   0.435
26605SOL    HW281823   7.452   9.277   0.341
26606SOL     OW81824   5.646   9.052   0.125
26606SOL    HW181825   5.633   8.963   0.160
26606SOL    HW281826   5.616   9.108   0.199
26607SOL     OW81827   7.303   8.365   0.610
26607SOL    HW181828   7.368   8.335   0.544
26607SOL    HW281829   7.253   8.429   0.557
26608SOL     OW81830   7.214   8.572   0.440
26608SOL    HW181831   7.283   8.604   0.381
26608SOL    HW281832   7.224   8.633   0.516
26609SOL     OW81833   5.710   8.192   1.581
26609SOL    HW181834   5.804   8.214   1.576
26609SOL    HW281835   5.676   8.272   1.625
26610SOL     OW81836   6.169   8.855   0.740
26610SOL    HW181837   6.135   8.763   0.747
26610SOL    HW281838   6.162   8.872   0.644
26611SOL     OW81839   6.866   8.674   1.419
26611SOL    HW181840   6.901   8.602   1.364
26611SOL    HW281841   6.918   8.667   1.501
26612SOL     OW81842   6.420   7.460   0.451
26612SOL    HW181843   6.450   7.552   0.468
26612SOL    HW281844   6.326   7.465   0.478
26613SOL     OW81845   5.755   8.435   1.260
26613SOL    HW181846   5.846   8.403   1.256
26613SOL    HW281847   5.706   8.366   1.212
26614SOL     OW81848   7.130   8.417   0.225
26614SOL    HW181849   7.045   8.376   0.248
26614SOL    HW281850   7.156   8.459   0.308
26615SOL     OW81851   6.760   9.252   1.615
26615SOL    HW181852   6.769   9.317   1.544
26615SOL    HW281853   6.781   9.169   1.570
26616SOL     OW81854   5.917   7.678   1.804
26616SOL    HW181855   5.965   7.754   1.836
26616SOL    HW281856   5.825   7.703   1.827
26617SOL     OW81857   7.054   8.879   0.966
26617SOL    HW181858   6.988   8.898   1.036
26617SOL    HW281859   7.024   8.791   0.935
26618SOL     OW81860   7.240   9.189   0.597
26618SOL    HW181861   7.230   9.152   0.507
26618SOL    HW281862   7.222   9.111   0.652
26619SOL     OW81863   6.173   8.157   0.274
26619SOL    HW181864   6.183   8.240   0.226
26619SOL    HW281865   6.108   8.178   0.344
26620SOL     OW81866   6.852   7.763   0.904
26620SOL    HW181867   6.763   7.739   0.936
26620SOL    HW281868   6.910   7.736   0.978
26621SOL     OW81869   7.159   9.102   0.324
26621SOL    HW181870   7.253   9.123   0.315
26621SOL    HW281871   7.134   9.090   0.231
26622SOL     OW81872   6.390   8.066   1.462
26622SOL    HW181873   6.369   8.030   1.551
26622SOL    HW281874   6.338   8.007   1.405
26623SOL     OW81875   6.982   7.928   1.668
26623SOL    HW181876   6.987   7.986   1.746
26623SOL    HW281877   7.041   7.853   1.694
26624SOL     OW81878   6.551   8.337   1.587
26624SOL    HW181879   6.594   8.257   1.549
26624SOL    HW281880   6.504   8.372   1.509
26625SOL     OW81881   6.559   7.850   1.237
26625SOL    HW181882   6.472   7.869   1.272
26625SOL    HW281883   6.540   7.798   1.158
26626SOL     OW81884   6.625   8.127   0.412
26626SOL    HW181885   6.634   8.149   0.506
26626SOL    HW281886   6.540   8.079   0.411
26627SOL     OW81887   5.680   8.272   0.789
26627SOL    HW181888   5.756   8.264   0.849
26627SOL    HW281889   5.643   8.358   0.816
26628SOL     OW81890   5.687   9.281   1.564
26628SOL    HW181891   5.699   9.260   1.658
26628SOL    HW281892   5.591   9.283   1.556
26629SOL     OW81893   6.467   7.824   0.207
26629SOL    HW181894   6.515   7.874   0.138
26629SOL    HW281895   6.482   7.731   0.179
26630SOL     OW81896   7.310   8.040   1.842
26630SOL    HW181897   7.268   8.114   1.794
26630SOL    HW281898   7.333   7.982   1.768
26631SOL     OW81899   6.959   8.606   0.589
26631SOL    HW181900   7.033   8.595   0.528
26631SOL    HW281901   6.902   8.665   0.538
26632SOL     OW81902   6.130   7.642   0.896
26632SOL    HW181903   6.142   7.665   0.990
26632SOL    HW281904   6.125   7.728   0.852
26633SOL     OW81905   6.579   8.875   0.482
26633SOL    HW181906   6.543   8.948   0.427
26633SOL    HW281907   6.589   8.919   0.568
26634SOL     OW81908   5.924   9.255   0.866
26634SOL    HW181909   5.976   9.173   0.874
26634SOL    HW281910   5.991   9.322   0.886
26635SOL     OW81911   7.403   8.483   0.880
26635SOL    HW181912   7.342   8.476   0.804
26635SOL    HW281913   7.343   8.482   0.956
26636SOL     OW81914   6.806   9.010   1.495
26636SOL    HW181915   6.780   8.944   1.562
26636SOL    HW281916   6.765   8.974   1.415
26637SOL     OW81917   5.899   8.413   0.271
26637SOL    HW181918   5.985   8.413   0.227
26637SOL    HW281919   5.868   8.322   0.255
26638SOL     OW81920   7.065   8.199   0.708
26638SOL    HW181921   7.047   8.173   0.799
26638SOL    HW281922   7.146   8.252   0.715
26639SOL     OW81923   6.043   8.723   1.725
26639SOL    HW181924   6.004   8.727   1.635
26639SOL    HW281925   5.962   8.729   1.779
26640SOL     OW81926   6.670   9.212   0.212
26640SOL    HW181927   6.624   9.154   0.275
26640SOL    HW281928   6.706   9.148   0.146
26641SOL     OW81929   5.756   7.735   1.491
26641SOL    HW181930   5.689   7.797   1.523
26641SOL    HW281931   5.758   7.670   1.563
26642SOL     OW81932   7.220   8.795   0.091
26642SOL    HW181933   7.176   8.880   0.070
26642SOL    HW281934   7.156   8.730   0.054
26643SOL     OW81935   6.053   9.192   0.301
26643SOL    HW181936   6.092   9.237   0.378
26643SOL    HW281937   6.128   9.191   0.239
26644SOL     OW81938   6.989   7.570   0.442
26644SOL    HW181939   6.989   7.515   0.362
26644SOL    HW281940   7.083   7.579   0.462
26645SOL     OW81941   5.830   9.243   1.234
26645SOL    HW181942   5.887   9.176   1.274
26645SOL    HW281943   5.823   9.213   1.143
26646SOL     OW81944   6.544   9.153   0.884
26646SOL    HW181945   6.626   9.104   0.899
26646SOL    HW281946   6.500   9.096   0.818
26647SOL     OW81947   5.971   8.151   0.472
26647SOL    HW181948   5.982   8.054   0.476
26647SOL    HW281949   5.879   8.159   0.500
26648SOL     OW81950   7.126   7.708   1.726
26648SOL    HW181951   7.124   7.708   1.825
26648SOL    HW281952   7.065   7.636   1.707
26649SOL     OW81953   6.213   7.561   0.106
26649SOL    HW181954   6.301   7.532   0.135
26649SOL    HW281955   6.200   7.516   0.022
26650SOL     OW81956   6.363   7.714   1.731
26650SOL    HW181957   6.442   7.656   1.739
26650SOL    HW281958   6.312   7.688   1.809
26651SOL     OW81959   6.460   8.988   1.190
26651SOL    HW181960   6.454   8.963   1.096
26651SOL    HW281961   6.519   8.921   1.227
26652SOL     OW81962   6.912   8.040   1.428
26652SOL    HW181963   6.953   8.007   1.510
26652SOL    HW281964   6.962   8.123   1.411
26653SOL     OW81965   6.380   8.860   0.927
26653SOL    HW181966   6.466   8.852   0.882
26653SOL    HW281967   6.317   8.857   0.854
26654SOL     OW81968   6.532   7.964   0.901
26654SOL    HW181969   6.512   7.947   0.806
26654SOL    HW281970   6.560   7.876   0.930
26655SOL     OW81971   6.154   7.495   0.501
26655SOL    HW181972   6.074   7.504   0.557
26655SOL    HW281973   6.143   7.575   0.444
26656SOL     OW81974   7.033   8.609   0.037
26656SOL    HW181975   7.061   8.544   0.103
26656SOL    HW281976   6.950   8.645   0.072
26657SOL     OW81977   5.863   7.529   0.222
26657SOL    HW181978   5.900   7.572   0.143
26657SOL    HW281979   5.928   7.459   0.238
26658SOL     OW81980   6.532   7.712   0.465
26658SOL    HW181981   6.516   7.758   0.381
26658SOL    HW281982   6.628   7.724   0.477
26659SOL     OW81983   6.665   8.126   1.476
26659SOL    HW181984   6.609   8.048   1.473
26659SOL    HW281985   6.755   8.090   1.468
26660SOL     OW81986   6.823   9.028   0.798
26660SOL    HW181987   6.826   9.098   0.731
26660SOL    HW281988   6.901   9.048   0.851
26661SOL     OW81989   6.055   8.608   0.740
26661SOL    HW181990   5.982   8.583   0.800
26661SOL    HW281991   6.017   8.583   0.653
26662SOL     OW81992   6.842   9.252   0.632
26662SOL    HW181993   6.888   9.316   0.575
26662SOL    HW281994   6.791   9.310   0.691
26663SOL     OW81995   6.612   7.970   0.033
26663SOL    HW181996   6.574   8.059   0.022
26663SOL    HW281997   6.703   7.990   0.060
26664SOL     OW81998   5.633   8.015   1.391
26664SOL    HW181999   5.728   8.010   1.370
26664SOL    HW282000   5.632   8.090   1.454
26665SOL     OW82001   6.153   7.686   1.171
26665SOL    HW182002   6.198   7.617   1.222
26665SOL    HW282003   6.060   7.673   1.201
26666SOL     OW82004   6.470   7.896   0.653
26666SOL    HW182005   6.419   7.953   0.593
26666SOL    HW282006   6.487   7.819   0.595
26667SOL     OW82007   6.595   7.523   0.772
26667SOL    HW182008   6.557   7.508   0.686
26667SOL    HW282009   6.577   7.439   0.819
26668SOL     OW82010   6.998   8.632   0.877
26668SOL    HW182011   6.923   8.573   0.895
26668SOL    HW282012   7.002   8.627   0.780
26669SOL     OW82013   7.036   8.025   0.994
26669SOL    HW182014   6.984   7.944   1.005
26669SOL    HW282015   7.103   8.017   1.064
26670SOL     OW82016   7.442   8.277   0.384
26670SOL    HW182017   7.493   8.213   0.436
26670SOL    HW282018   7.409   8.219   0.313
26671SOL     OW82019   6.085   8.890   0.144
26671SOL    HW182020   6.008   8.864   0.198
26671SOL    HW282021   6.081   8.825   0.071
26672SOL     OW82022   7.260   8.720   0.653
26672SOL    HW182023   7.357   8.730   0.657
26672SOL    HW282024   7.229   8.807   0.684
26673SOL     OW82025   6.957   8.039   0.076
26673SOL    HW182026   6.919   8.007   0.161
26673SOL    HW282027   7.023   7.971   0.059
26674SOL     OW82028   6.111   7.685   0.321
26674SOL    HW182029   6.148   7.639   0.242
26674SOL    HW282030   6.083   7.769   0.282
26675SOL     OW82031   7.314   8.677   1.571
26675SOL    HW182032   7.398   8.634   1.593
26675SOL    HW282033   7.337   8.771   1.584
26676SOL     OW82034   6.647   8.807   1.331
26676SOL    HW182035   6.571   8.776   1.382
26676SOL    HW282036   6.721   8.757   1.374
26677SOL     OW82037   7.186   9.052   1.635
26677SOL    HW182038   7.200   9.096   1.549
26677SOL    HW282039   7.264   8.995   1.641
26678SOL     OW82040   6.712   8.668   1.096
26678SOL    HW182041   6.652   8.702   1.163
26678SOL    HW282042   6.676   8.706   1.014
26679SOL     OW82043   7.179   8.538   1.073
26679SOL    HW182044   7.192   8.604   1.143
26679SOL    HW282045   7.123   8.587   1.009
26680SOL     OW82046   6.516   7.545   1.409
26680SOL    HW182047   6.545   7.528   1.317
26680SOL    HW282048   6.595   7.591   1.446
26681SOL     OW82049   6.585   8.570   1.737
26681SOL    HW182050   6.496   8.599   1.762
26681SOL    HW282051   6.567   8.492   1.681
26682SOL     OW82052   6.314   8.522   0.365
26682SOL    HW182053   6.299   8.502   0.460
26682SOL    HW282054   6.396   8.472   0.346
26683SOL     OW82055   6.005   8.269   1.266
26683SOL    HW182056   6.078   8.264   1.331
26683SOL    HW282057   5.968   8.179   1.271
26684SOL     OW82058   6.847   7.818   1.277
26684SOL    HW182059   6.870   7.902   1.321
26684SOL    HW282060   6.755   7.834   1.250
26685SOL     OW82061   5.660   9.016   1.344
26685SOL    HW182062   5.660   9.109   1.317
26685SOL    HW282063   5.756   8.995   1.344
26686SOL     OW82064   5.942   8.550   0.506
26686SOL    HW182065   5.945   8.625   0.446
26686SOL    HW282066   5.924   8.478   0.444
26687SOL     OW82067   6.134   7.988   0.871
26687SOL    HW182068   6.157   8.051   0.800
26687SOL    HW282069   6.204   8.006   0.936
26688SOL     OW82070   6.820   8.781   0.402
26688SOL    HW182071   6.864   8.864   0.426
26688SOL    HW282072   6.727   8.800   0.427
26689SOL     OW82073   6.873   8.918   1.164
26689SOL    HW182074   6.935   8.915   1.239
26689SOL    HW282075   6.812   8.846   1.184
26690SOL     OW82076   7.167   8.072   0.475
26690SOL    HW182077   7.119   8.113   0.549
26690SOL    HW282078   7.177   8.147   0.414
26691SOL     OW82079   5.921   8.963   1.319
26691SOL    HW182080   5.911   8.928   1.228
26691SOL    HW282081   6.016   8.987   1.318
26692SOL     OW82082   6.025   8.175   1.629
26692SOL    HW182083   6.078   8.218   1.559
26692SOL    HW282084   6.067   8.088   1.634
26693SOL     OW82085   7.214   8.229   1.688
26693SOL    HW182086   7.124   8.266   1.683
26693SOL    HW282087   7.258   8.276   1.614
26694SOL     OW82088   6.582   7.563   1.756
26694SOL    HW182089   6.649   7.632   1.745
26694SOL    HW282090   6.627   7.488   1.712
26695SOL     OW82091   6.091   7.465   1.758
26695SOL    HW182092   6.052   7.407   1.691
26695SOL    HW282093   6.025   7.536   1.763
26696SOL     OW82094   6.192   8.339   1.055
26696SOL    HW182095   6.209   8.434   1.046
26696SOL    HW282096   6.126   8.335   1.126
26697SOL     OW82097   6.953   8.297   1.013
26697SOL    HW182098   6.861   8.271   1.001
26697SOL    HW282099   6.996   8.211   1.025
26698SOL     OW82100   6.819   7.956   0.287
26698SOL    HW182101   6.824   7.884   0.354
26698SOL    HW282102   6.752   8.014   0.327
26699SOL     OW82103   5.895   7.654   1.250
26699SOL    HW182104   5.842   7.681   1.328
26699SOL    HW282105   5.871   7.559   1.242
26700SOL     OW82106   5.616   8.749   1.285
26700SOL    HW182107   5.645   8.691   1.358
26700SOL    HW282108   5.627   8.839   1.321
26701SOL     OW82109   6.314   8.090   1.062
26701SOL    HW182110   6.395   8.081   1.009
26701SOL    HW282111   6.284   8.182   1.045
26702SOL     OW82112   7.354   8.401   1.851
26702SOL    HW182113   7.303   8.338   1.797
26702SOL    HW282114   7.297   8.407   1.929
26703SOL     OW82115   5.902   7.518   0.613
26703SOL    HW182116   5.875   7.606   0.646
26703SOL    HW282117   5.895   7.464   0.694
26704SOL     OW82118   7.203   7.835   0.350
26704SOL    HW182119   7.220   7.764   0.414
26704SOL    HW282120   7.182   7.912   0.407
26705SOL     OW82121   6.640   8.200   0.981
26705SOL    HW182122   6.614   8.208   1.075
26705SOL    HW282123   6.610   8.109   0.960
26706SOL     OW82124   6.560   9.017   1.701
26706SOL    HW182125   6.549   9.067   1.617
26706SOL    HW282126   6.594   8.931   1.670
26707SOL     OW82127   7.430   8.933   1.601
26707SOL    HW182128   7.451   8.959   1.509
26707SOL    HW282129   7.511   8.961   1.648
26708SOL     OW82130   5.936   8.350   1.803
26708SOL    HW182131   6.017   8.374   1.850
26708SOL    HW282132   5.965   8.273   1.749
26709SOL     OW82133   7.104   7.729   0.113
26709SOL    HW182134   7.044   7.664   0.149
26709SOL    HW282135   7.151   7.760   0.192
26710SOL     OW82136   6.860   8.286   0.025
26710SOL    HW182137   6.899   8.198   0.041
26710SOL    HW282138   6.913   8.318  11.053
26711SOL     OW82139   6.642   8.812   0.847
26711SOL    HW182140   6.657   8.732   0.793
26711SOL    HW282141   6.714   8.873   0.819
26712SOL     OW82142   5.869   8.264   0.995
26712SOL    HW182143   5.960   8.273   0.965
26712SOL    HW282144   5.866   8.170   1.021
26713SOL     OW82145   5.898   7.986   0.997
26713SOL    HW182146   5.878   7.892   0.984
26713SOL    HW282147   5.975   7.997   0.938
26714SOL     OW82148   6.737   7.814   1.697
26714SOL    HW182149   6.692   7.867   1.765
26714SOL    HW282150   6.824   7.859   1.693
26715SOL     OW82151   6.752   7.647   1.480
26715SOL    HW182152   6.751   7.714   1.551
26715SOL    HW282153   6.796   7.694   1.408
26716SOL     OW82154   5.585   8.796   0.217
26716SOL    HW182155   5.498   8.806   0.174
26716SOL    HW282156   5.596   8.699   0.215
26717SOL     OW82157   5.674   9.219   0.939
26717SOL    HW182158   5.648   9.154   0.871
26717SOL    HW282159   5.767   9.238   0.914
26718SOL     OW82160   6.065   9.023   0.917
26718SOL    HW182161   6.138   9.088   0.926
26718SOL    HW282162   6.102   8.961   0.851
26719SOL     OW82163   6.561   8.217   1.241
26719SOL    HW182164   6.612   8.187   1.318
26719SOL    HW282165   6.472   8.191   1.265
26720SOL     OW82166   5.605   7.960   1.105
26720SOL    HW182167   5.687   7.953   1.054
26720SOL    HW282168   5.638   7.990   1.191
26721SOL     OW82169   5.798   7.958   1.694
26721SOL    HW182170   5.867   7.931   1.632
26721SOL    HW282171   5.761   8.038   1.652
26722SOL     OW82172   6.978   8.366   1.650
26722SOL    HW182173   6.993   8.462   1.650
26722SOL    HW282174   6.965   8.346   1.557
26723SOL     OW82175   6.386   8.008   0.385
26723SOL    HW182176   6.407   7.940   0.318
26723SOL    HW282177   6.315   8.058   0.342
26724SOL     OW82178   7.225   8.067   1.208
26724SOL    HW182179   7.199   8.001   1.273
26724SOL    HW282180   7.309   8.031   1.174
26725SOL     OW82181   5.833   8.989   1.723
26725SOL    HW182182   5.824   9.059   1.789
26725SOL    HW282183   5.838   8.909   1.781
26726SOL     OW82184   6.264   7.927   1.269
26726SOL    HW182185   6.221   7.850   1.228
26726SOL    HW282186   6.272   7.989   1.194
26727SOL     OW82187   6.516   9.144   1.469
26727SOL    HW182188   6.498   9.119   1.378
26727SOL    HW282189   6.511   9.241   1.466
26728SOL     OW82190   6.047   7.916   0.199
26728SOL    HW182191   6.106   7.992   0.208
26728SOL    HW282192   5.961   7.959   0.214
26729SOL     OW82193   5.691   8.580   1.479
26729SOL    HW182194   5.705   8.524   1.559
26729SOL    HW282195   5.710   8.518   1.406
26730SOL     OW82196   6.911   8.484   1.225
26730SOL    HW182197   6.932   8.433   1.144
26730SOL    HW282198   6.840   8.542   1.194
26731SOL     OW82199   6.891   8.310   0.301
26731SOL    HW182200   6.811   8.274   0.342
26731SOL    HW282201   6.871   8.299   0.207
26732SOL     OW82202   7.355   9.194   1.136
26732SOL    HW182203   7.423   9.214   1.069
26732SOL    HW282204   7.341   9.098   1.119
26733SOL     OW82205   6.824   9.181   1.113
26733SOL    HW182206   6.911   9.203   1.076
26733SOL    HW282207   6.833   9.085   1.131
26734SOL     OW82208   5.686   8.706   1.033
26734SOL    HW182209   5.652   8.724   1.124
26734SOL    HW282210   5.612   8.657   0.993
26735SOL     OW82211   6.284   9.093   1.740
26735SOL    HW182212   6.258   9.183   1.718
26735SOL    HW282213   6.379   9.091   1.720
26736SOL     OW82214   6.499   7.566   0.144
26736SOL    HW182215   6.548   7.520   0.075
26736SOL    HW282216   6.535   7.520   0.222
26737SOL     OW82217   7.267   7.587   0.500
26737SOL    HW182218   7.344   7.578   0.442
26737SOL    HW282219   7.267   7.503   0.549
26738SOL     OW82220   6.947   9.013   0.481
26738SOL    HW182221   7.016   9.030   0.414
26738SOL    HW282222   6.913   9.103   0.497
26739SOL     OW82223   5.738   9.243   1.833
26739SOL    HW182224   5.696   9.172   1.887
26739SOL    HW282225   5.787   9.291   1.902
26740SOL     OW82226   6.839   8.364   0.643
26740SOL    HW182227   6.920   8.314   0.662
26740SOL    HW282228   6.874   8.450   0.614
26741SOL     OW82229   6.397   8.703   1.438
26741SOL    HW182230   6.365   8.751   1.517
26741SOL    HW282231   6.327   8.724   1.374
26742SOL     OW82232   6.276   9.075   0.169
26742SOL    HW182233   6.284   9.086   0.074
26742SOL    HW282234   6.208   9.004   0.175
26743SOL     OW82235   7.213   9.166   1.389
26743SOL    HW182236   7.259   9.184   1.304
26743SOL    HW282237   7.198   9.256   1.424
26744SOL     OW82238   7.431   7.612   0.974
26744SOL    HW182239   7.453   7.526   0.933
26744SOL    HW282240   7.345   7.635   0.932
26745SOL     OW82241   5.844   7.766   0.709
26745SOL    HW182242   5.754   7.801   0.689
26745SOL    HW282243   5.848   7.773   0.805
26746SOL     OW82244   6.805   9.042   0.043
26746SOL    HW182245   6.802   8.945   0.051
26746SOL    HW282246   6.751   9.060  11.066
26747SOL     OW82247   6.405   8.443   1.386
26747SOL    HW182248   6.433   8.453   1.294
26747SOL    HW282249   6.404   8.535   1.418
26748SOL     OW82250   6.519   8.377   0.297
26748SOL    HW182251   6.567   8.400   0.215
26748SOL    HW282252   6.546   8.286   0.313
26749SOL     OW82253   7.098   9.049   0.048
26749SOL    HW182254   7.003   9.067   0.052
26749SOL    HW282255   7.120   9.067  11.057
26750SOL     OW82256   5.931   8.722   1.486
26750SOL    HW182257   5.925   8.790   1.418
26750SOL    HW282258   5.846   8.675   1.478
26751SOL     OW82259   7.186   8.758   1.262
26751SOL    HW182260   7.221   8.726   1.346
26751SOL    HW282261   7.125   8.829   1.293
26752SOL     OW82262   6.635   8.563   0.732
26752SOL    HW182263   6.560   8.509   0.763
26752SOL    HW282264   6.690   8.497   0.687
26753SOL     OW82265   6.613   7.679   0.990
26753SOL    HW182266   6.599   7.635   0.903
26753SOL    HW282267   6.613   7.601   1.050
26754SOL     OW82268   6.203   8.940   0.486
26754SOL    HW182269   6.251   8.895   0.414
26754SOL    HW282270   6.127   8.978   0.440
26755SOL     OW82271   7.293   7.818   1.377
26755SOL    HW182272   7.358   7.892   1.377
26755SOL    HW282273   7.339   7.752   1.321
26756SOL     OW82274   5.845   8.813   0.270
26756SOL    HW182275   5.749   8.812   0.248
26756SOL    HW282276   5.842   8.842   0.364
26757SOL     OW82277   5.704   8.435   1.698
26757SOL    HW182278   5.632   8.428   1.765
26757SOL    HW282279   5.784   8.415   1.751
26758SOL     OW82280   6.264   7.628   1.490
26758SOL    HW182281   6.351   7.594   1.465
26758SOL    HW282282   6.284   7.671   1.575
26759SOL     OW82283   5.702   7.820   0.009
26759SOL    HW182284   5.625   7.767  11.084
26759SOL    HW282285   5.680   7.905  11.070
26760SOL     OW82286   7.029   8.296   1.382
26760SOL    HW182287   6.982   8.357   1.322
26760SOL    HW282288   7.119   8.328   1.376
26761SOL     OW82289   5.627   7.612   0.323
26761SOL    HW182290   5.629   7.695   0.275
26761SOL    HW282291   5.718   7.580   0.305
26762SOL     OW82292   6.787   8.756   0.128
26762SOL    HW182293   6.691   8.764   0.118
26762SOL    HW282294   6.798   8.760   0.225
26763SOL     OW82295   6.205   8.256   1.438
26763SOL    HW182296   6.260   8.335   1.429
26763SOL    HW282297   6.275   8.189   1.449
26764SOL     OW82298   7.095   9.215   0.962
26764SOL    HW182299   7.128   9.259   0.883
26764SOL    HW282300   7.175   9.200   1.013
26765SOL     OW82301   6.309   7.983   1.698
26765SOL    HW182302   6.355   8.048   1.754
26765SOL    HW282303   6.331   7.897   1.737
26766SOL     OW82304   7.046   8.633   1.625
26766SOL    HW182305   7.044   8.636   1.723
26766SOL    HW282306   7.140   8.648   1.607
26767SOL     OW82307   5.955   9.178   1.556
26767SOL    HW182308   5.868   9.219   1.541
26767SOL    HW282309   5.929   9.095   1.600
26768SOL     OW82310   7.286   8.331   1.235
26768SOL    HW182311   7.253   8.241   1.215
26768SOL    HW282312   7.241   8.387   1.169
26769SOL     OW82313   6.806   7.770   0.485
26769SOL    HW182314   6.870   7.699   0.468
26769SOL    HW282315   6.847   7.820   0.559
26770SOL     OW82316   6.171   8.192   0.681
26770SOL    HW182317   6.201   8.282   0.662
26770SOL    HW282318   6.107   8.175   0.610
26771SOL     OW82319   7.355   7.830   1.638
26771SOL    HW182320   7.322   7.836   1.546
26771SOL    HW282321   7.281   7.782   1.679
26772SOL     OW82322   7.325   8.378   1.499
26772SOL    HW182323   7.335   8.474   1.493
26772SOL    HW282324   7.328   8.351   1.405
26773SOL     OW82325   6.496   8.800   0.053
26773SOL    HW182326   6.414   8.809   0.104
26773SOL    HW282327   6.503   8.884   0.006
26774SOL     OW82328   6.225   9.247   0.906
26774SOL    HW182329   6.206   9.342   0.896
26774SOL    HW282330   6.321   9.245   0.914
26775SOL     OW82331   6.458   8.396   0.851
26775SOL    HW182332   6.509   8.327   0.897
26775SOL    HW282333   6.434   8.455   0.924
26776SOL     OW82334   6.626   8.434   0.063
26776SOL    HW182335   6.639   8.510   0.006
26776SOL    HW282336   6.709   8.384   0.052
26777SOL     OW82337   7.435   8.999   0.818
26777SOL    HW182338   7.342   8.991   0.792
26777SOL    HW282339   7.439   8.947   0.900
26778SOL     OW82340   5.826   8.765   1.870
26778SOL    HW182341   5.751   8.705   1.857
26778SOL    HW282342   5.824   8.777   1.968
26779SOL     OW82343   5.669   8.694   0.654
26779SOL    HW182344   5.691   8.650   0.737
26779SOL    HW282345   5.741   8.665   0.597
26780SOL     OW82346   6.256   8.846   1.613
26780SOL    HW182347   6.181   8.797   1.651
26780SOL    HW282348   6.247   8.934   1.656
26781SOL     OW82349   7.411   7.616   1.233
26781SOL    HW182350   7.424   7.522   1.248
26781SOL    HW282351   7.416   7.620   1.135
26782SOL     OW82352   6.017   7.874   0.517
26782SOL    HW182353   6.063   7.804   0.469
26782SOL    HW282354   5.973   7.828   0.590
26783SOL     OW82355   7.307   8.938   1.077
26783SOL    HW182356   7.222   8.916   1.035
26783SOL    HW282357   7.301   8.881   1.155
26784SOL     OW82358   5.909   7.989   1.281
26784SOL    HW182359   5.976   7.947   1.337
26784SOL    HW282360   5.928   7.954   1.193
26785SOL     OW82361   6.404   9.029   0.676
26785SOL    HW182362   6.390   9.027   0.580
26785SOL    HW282363   6.319   8.996   0.707
26786SOL     OW82364   7.021   7.713   1.099
26786SOL    HW182365   7.059   7.633   1.136
26786SOL    HW282366   6.961   7.743   1.170
26787SOL     OW82367   6.607   7.454   1.151
26787SOL    HW182368   6.549   7.380   1.131
26787SOL    HW282369   6.696   7.411   1.146
26788SOL     OW82370   6.360   8.792   0.318
26788SOL    HW182371   6.339   8.697   0.327
26788SOL    HW282372   6.447   8.797   0.361
26789SOL     OW82373   6.184   9.009   1.275
26789SOL    HW182374   6.188   9.094   1.322
26789SOL    HW282375   6.277   9.002   1.246
26790SOL     OW82376   6.912   7.473   0.170
26790SOL    HW182377   6.932   7.434   0.084
26790SOL    HW282378   6.822   7.439   0.188
26791SOL     OW82379   6.912   7.925   0.699
26791SOL    HW182380   6.843   7.995   0.700
26791SOL    HW282381   6.888   7.873   0.778
26792SOL     OW82382   7.192   7.654   0.859
26792SOL    HW182383   7.109   7.660   0.908
26792SOL    HW282384   7.189   7.732   0.802
26793SOL     OW82385   5.635   8.535   0.268
26793SOL    HW182386   5.732   8.532   0.275
26793SOL    HW282387   5.613   8.444   0.293
26794SOL     OW82388   6.479   9.086   0.361
26794SOL    HW182389   6.402   9.075   0.301
26794SOL    HW282390   6.457   9.169   0.408
26795SOL     OW82391   5.814   8.084   1.997
26795SOL    HW182392   5.723   8.081   2.028
26795SOL    HW282393   5.808   8.070   1.902
26796SOL     OW82394   5.808   7.730   2.858
26796SOL    HW182395   5.830   7.707   2.950
26796SOL    HW282396   5.721   7.687   2.846
26797SOL     OW82397   5.596   7.851   2.499
26797SOL    HW182398   5.510   7.871   2.543
26797SOL    HW282399   5.575   7.768   2.455
26798SOL     OW82400   6.155   8.732   3.062
26798SOL    HW182401   6.068   8.730   3.020
26798SOL    HW282402   6.165   8.827   3.081
26799SOL     OW82403   7.138   8.974   2.581
26799SOL    HW182404   7.096   8.945   2.664
26799SOL    HW282405   7.066   8.970   2.514
26800SOL     OW82406   6.718   8.128   2.569
26800SOL    HW182407   6.749   8.217   2.544
26800SOL    HW282408   6.680   8.145   2.657
26801SOL     OW82409   7.358   8.057   2.103
26801SOL    HW182410   7.342   8.051   2.006
26801SOL    HW282411   7.301   7.986   2.136
26802SOL     OW82412   6.335   8.608   2.890
26802SOL    HW182413   6.269   8.648   2.948
26802SOL    HW282414   6.363   8.686   2.839
26803SOL     OW82415   6.465   8.202   3.668
26803SOL    HW182416   6.445   8.267   3.737
26803SOL    HW282417   6.486   8.259   3.591
26804SOL     OW82418   6.275   8.481   2.513
26804SOL    HW182419   6.337   8.454   2.584
26804SOL    HW282420   6.206   8.528   2.562
26805SOL     OW82421   6.277   8.596   3.667
26805SOL    HW182422   6.319   8.683   3.682
26805SOL    HW282423   6.188   8.622   3.637
26806SOL     OW82424   5.898   8.874   2.935
26806SOL    HW182425   5.829   8.825   2.887
26806SOL    HW282426   5.946   8.923   2.865
26807SOL     OW82427   7.061   8.953   3.240
26807SOL    HW182428   7.110   9.037   3.248
26807SOL    HW282429   6.988   8.964   3.302
26808SOL     OW82430   6.006   7.843   3.397
26808SOL    HW182431   6.083   7.792   3.369
26808SOL    HW282432   5.931   7.788   3.366
26809SOL     OW82433   7.208   7.895   2.603
26809SOL    HW182434   7.141   7.929   2.542
26809SOL    HW282435   7.197   7.953   2.679
26810SOL     OW82436   5.803   9.169   2.337
26810SOL    HW182437   5.832   9.246   2.391
26810SOL    HW282438   5.870   9.168   2.266
26811SOL     OW82439   6.710   8.799   3.524
26811SOL    HW182440   6.752   8.800   3.611
26811SOL    HW282441   6.667   8.711   3.526
26812SOL     OW82442   5.835   8.879   2.388
26812SOL    HW182443   5.834   8.975   2.398
26812SOL    HW282444   5.765   8.849   2.448
26813SOL     OW82445   5.857   8.526   2.765
26813SOL    HW182446   5.849   8.453   2.827
26813SOL    HW282447   5.799   8.593   2.805
26814SOL     OW82448   6.183   9.247   3.266
26814SOL    HW182449   6.113   9.217   3.327
26814SOL    HW282450   6.202   9.337   3.298
26815SOL     OW82451   6.156   8.438   1.985
26815SOL    HW182452   6.206   8.487   1.916
26815SOL    HW282453   6.198   8.473   2.065
26816SOL     OW82454   7.198   7.565   3.348
26816SOL    HW182455   7.188   7.645   3.295
26816SOL    HW282456   7.197   7.601   3.438
26817SOL     OW82457   5.701   8.101   2.420
26817SOL    HW182458   5.671   8.010   2.438
26817SOL    HW282459   5.692   8.144   2.508
26818SOL     OW82460   7.438   9.185   2.205
26818SOL    HW182461   7.505   9.171   2.274
26818SOL    HW282462   7.452   9.279   2.184
26819SOL     OW82463   5.639   9.042   1.981
26819SOL    HW182464   5.624   8.949   2.004
26819SOL    HW282465   5.603   9.088   2.059
26820SOL     OW82466   7.270   8.347   2.516
26820SOL    HW182467   7.343   8.311   2.464
26820SOL    HW282468   7.235   8.414   2.456
26821SOL     OW82469   7.223   8.568   2.308
26821SOL    HW182470   7.313   8.564   2.272
26821SOL    HW282471   7.233   8.635   2.379
26822SOL     OW82472   5.705   8.188   3.444
26822SOL    HW182473   5.790   8.228   3.468
26822SOL    HW282474   5.645   8.262   3.459
26823SOL     OW82475   6.169   8.861   2.623
26823SOL    HW182476   6.134   8.769   2.631
26823SOL    HW282477   6.169   8.870   2.526
26824SOL     OW82478   6.877   8.682   3.290
26824SOL    HW182479   6.907   8.610   3.231
26824SOL    HW282480   6.932   8.666   3.369
26825SOL     OW82481   6.419   7.452   2.347
26825SOL    HW182482   6.451   7.544   2.346
26825SOL    HW282483   6.323   7.464   2.358
26826SOL     OW82484   5.767   8.434   3.123
26826SOL    HW182485   5.857   8.400   3.106
26826SOL    HW282486   5.712   8.366   3.082
26827SOL     OW82487   7.131   8.415   2.053
26827SOL    HW182488   7.049   8.370   2.079
26827SOL    HW282489   7.162   8.450   2.138
26828SOL     OW82490   6.787   9.258   3.479
26828SOL    HW182491   6.771   9.319   3.405
26828SOL    HW282492   6.787   9.172   3.433
26829SOL     OW82493   5.933   7.683   3.653
26829SOL    HW182494   5.977   7.770   3.651
26829SOL    HW282495   5.846   7.711   3.688
26830SOL     OW82496   7.054   8.867   2.817
26830SOL    HW182497   6.993   8.886   2.890
26830SOL    HW282498   7.022   8.779   2.788
26831SOL     OW82499   7.248   9.185   2.463
26831SOL    HW182500   7.229   9.148   2.376
26831SOL    HW282501   7.215   9.114   2.522
26832SOL     OW82502   6.169   8.163   2.120
26832SOL    HW182503   6.173   8.254   2.086
26832SOL    HW282504   6.101   8.168   2.189
26833SOL     OW82505   6.852   7.774   2.769
26833SOL    HW182506   6.764   7.743   2.796
26833SOL    HW282507   6.910   7.737   2.839
26834SOL     OW82508   7.161   9.095   2.167
26834SOL    HW182509   7.255   9.115   2.175
26834SOL    HW282510   7.153   9.089   2.070
26835SOL     OW82511   6.383   8.068   3.330
26835SOL    HW182512   6.368   8.022   3.415
26835SOL    HW282513   6.336   8.010   3.266
26836SOL     OW82514   6.983   7.926   3.537
26836SOL    HW182515   6.992   7.980   3.617
26836SOL    HW282516   7.039   7.848   3.558
26837SOL     OW82517   6.541   8.332   3.445
26837SOL    HW182518   6.587   8.253   3.409
26837SOL    HW282519   6.497   8.366   3.365
26838SOL     OW82520   6.550   7.852   3.093
26838SOL    HW182521   6.457   7.871   3.112
26838SOL    HW282522   6.545   7.803   3.010
26839SOL     OW82523   6.632   8.129   2.274
26839SOL    HW182524   6.640   8.149   2.369
26839SOL    HW282525   6.543   8.087   2.270
26840SOL     OW82526   5.694   8.244   2.647
26840SOL    HW182527   5.759   8.267   2.715
26840SOL    HW282528   5.640   8.324   2.639
26841SOL     OW82529   5.687   9.297   3.437
26841SOL    HW182530   5.703   9.280   3.533
26841SOL    HW282531   5.621   9.230   3.416
26842SOL     OW82532   6.463   7.810   2.074
26842SOL    HW182533   6.504   7.865   2.005
26842SOL    HW282534   6.475   7.722   2.037
26843SOL     OW82535   7.303   8.024   3.699
26843SOL    HW182536   7.268   8.104   3.654
26843SOL    HW282537   7.321   7.967   3.624
26844SOL     OW82538   6.954   8.596   2.429
26844SOL    HW182539   7.032   8.588   2.372
26844SOL    HW282540   6.901   8.660   2.379
26845SOL     OW82541   6.132   7.629   2.764
26845SOL    HW182542   6.145   7.654   2.857
26845SOL    HW282543   6.132   7.714   2.718
26846SOL     OW82544   6.579   8.890   2.360
26846SOL    HW182545   6.547   8.951   2.292
26846SOL    HW282546   6.569   8.943   2.440
26847SOL     OW82547   5.932   9.265   2.729
26847SOL    HW182548   5.985   9.184   2.746
26847SOL    HW282549   6.000   9.334   2.732
26848SOL     OW82550   7.400   8.485   2.746
26848SOL    HW182551   7.343   8.466   2.670
26848SOL    HW282552   7.337   8.483   2.820
26849SOL     OW82553   6.808   9.009   3.358
26849SOL    HW182554   6.781   8.942   3.422
26849SOL    HW282555   6.763   8.975   3.278
26850SOL     OW82556   5.897   8.399   2.119
26850SOL    HW182557   5.979   8.421   2.073
26850SOL    HW282558   5.871   8.316   2.077
26851SOL     OW82559   7.054   8.205   2.584
26851SOL    HW182560   7.051   8.167   2.674
26851SOL    HW282561   7.139   8.252   2.584
26852SOL     OW82562   6.044   8.720   3.585
26852SOL    HW182563   6.000   8.729   3.497
26852SOL    HW282564   5.966   8.728   3.643
26853SOL     OW82565   6.696   9.210   2.110
26853SOL    HW182566   6.622   9.167   2.155
26853SOL    HW282567   6.694   9.170   2.022
26854SOL     OW82568   5.759   7.739   3.351
26854SOL    HW182569   5.691   7.808   3.349
26854SOL    HW282570   5.717   7.670   3.404
26855SOL     OW82571   7.215   8.812   1.953
26855SOL    HW182572   7.179   8.897   1.927
26855SOL    HW282573   7.148   8.748   1.920
26856SOL     OW82574   6.039   9.178   2.175
26856SOL    HW182575   6.083   9.232   2.245
26856SOL    HW282576   6.115   9.148   2.122
26857SOL     OW82577   6.997   7.556   2.298
26857SOL    HW182578   6.993   7.512   2.212
26857SOL    HW282579   7.092   7.567   2.312
26858SOL     OW82580   5.831   9.242   3.089
26858SOL    HW182581   5.887   9.172   3.128
26858SOL    HW282582   5.825   9.215   2.997
26859SOL     OW82583   6.544   9.145   2.752
26859SOL    HW182584   6.630   9.101   2.746
26859SOL    HW282585   6.495   9.100   2.680
26860SOL     OW82586   5.972   8.129   2.325
26860SOL    HW182587   5.992   8.037   2.353
26860SOL    HW282588   5.877   8.135   2.346
26861SOL     OW82589   7.127   7.697   3.589
26861SOL    HW182590   7.128   7.703   3.687
26861SOL    HW282591   7.076   7.615   3.578
26862SOL     OW82592   6.231   7.582   1.956
26862SOL    HW182593   6.295   7.518   1.990
26862SOL    HW282594   6.181   7.529   1.891
26863SOL     OW82595   6.333   7.689   3.615
26863SOL    HW182596   6.424   7.651   3.611
26863SOL    HW282597   6.349   7.785   3.624
26864SOL     OW82598   6.459   8.985   3.062
26864SOL    HW182599   6.458   8.962   2.967
26864SOL    HW282600   6.521   8.920   3.099
26865SOL     OW82601   6.919   8.045   3.298
26865SOL    HW182602   6.958   8.012   3.382
26865SOL    HW282603   6.975   8.123   3.278
26866SOL     OW82604   6.392   8.857   2.784
26866SOL    HW182605   6.478   8.851   2.740
26866SOL    HW282606   6.330   8.865   2.710
26867SOL     OW82607   6.531   7.973   2.765
26867SOL    HW182608   6.506   7.965   2.670
26867SOL    HW282609   6.550   7.881   2.787
26868SOL     OW82610   6.145   7.500   2.369
26868SOL    HW182611   6.066   7.503   2.425
26868SOL    HW282612   6.130   7.576   2.309
26869SOL     OW82613   7.028   8.621   1.888
26869SOL    HW182614   7.055   8.548   1.947
26869SOL    HW282615   6.941   8.648   1.923
26870SOL     OW82616   5.866   7.492   2.056
26870SOL    HW182617   5.926   7.563   2.031
26870SOL    HW282618   5.929   7.428   2.094
26871SOL     OW82619   6.515   7.706   2.348
26871SOL    HW182620   6.497   7.752   2.265
26871SOL    HW282621   6.612   7.716   2.354
26872SOL     OW82622   6.669   8.125   3.336
26872SOL    HW182623   6.621   8.042   3.326
26872SOL    HW282624   6.763   8.099   3.326
26873SOL     OW82625   6.812   9.036   2.659
26873SOL    HW182626   6.815   9.089   2.578
26873SOL    HW282627   6.889   9.069   2.708
26874SOL     OW82628   6.060   8.615   2.609
26874SOL    HW182629   5.986   8.579   2.662
26874SOL    HW282630   6.028   8.598   2.518
26875SOL     OW82631   6.860   9.252   2.469
26875SOL    HW182632   6.905   9.321   2.416
26875SOL    HW282633   6.794   9.304   2.518
26876SOL     OW82634   6.641   7.975   1.890
26876SOL    HW182635   6.596   8.059   1.871
26876SOL    HW282636   6.710   7.999   1.954
26877SOL     OW82637   5.662   7.997   3.259
26877SOL    HW182638   5.756   7.986   3.236
26877SOL    HW282639   5.665   8.079   3.314
26878SOL     OW82640   6.159   7.673   3.028
26878SOL    HW182641   6.200   7.593   3.063
26878SOL    HW282642   6.066   7.663   3.058
26879SOL     OW82643   6.458   7.912   2.520
26879SOL    HW182644   6.411   7.961   2.451
26879SOL    HW282645   6.478   7.828   2.476
26880SOL     OW82646   6.620   7.511   2.630
26880SOL    HW182647   6.568   7.499   2.550
26880SOL    HW282648   6.599   7.430   2.682
26881SOL     OW82649   6.994   8.621   2.741
26881SOL    HW182650   6.931   8.551   2.764
26881SOL    HW282651   6.994   8.617   2.643
26882SOL     OW82652   7.065   8.036   2.839
26882SOL    HW182653   7.010   7.958   2.853
26882SOL    HW282654   7.127   8.035   2.914
26883SOL     OW82655   7.420   8.270   2.258
26883SOL    HW182656   7.481   8.218   2.315
26883SOL    HW282657   7.398   8.202   2.191
26884SOL     OW82658   6.080   8.870   1.975
26884SOL    HW182659   6.001   8.858   2.030
26884SOL    HW282660   6.061   8.814   1.898
26885SOL     OW82661   7.261   8.731   2.521
26885SOL    HW182662   7.359   8.737   2.525
26885SOL    HW282663   7.231   8.819   2.550
26886SOL     OW82664   6.993   8.040   1.926
26886SOL    HW182665   6.943   8.016   2.006
26886SOL    HW282666   7.080   8.001   1.943
26887SOL     OW82667   6.104   7.684   2.178
26887SOL    HW182668   6.152   7.652   2.099
26887SOL    HW282669   6.078   7.773   2.148
26888SOL     OW82670   7.315   8.678   3.441
26888SOL    HW182671   7.401   8.631   3.440
26888SOL    HW282672   7.344   8.770   3.453
26889SOL     OW82673   6.656   8.818   3.217
26889SOL    HW182674   6.580   8.775   3.258
26889SOL    HW282675   6.730   8.764   3.252
26890SOL     OW82676   7.200   9.074   3.506
26890SOL    HW182677   7.196   9.102   3.413
26890SOL    HW282678   7.277   9.013   3.504
26891SOL     OW82679   6.713   8.686   2.962
26891SOL    HW182680   6.638   8.698   3.020
26891SOL    HW282681   6.681   8.724   2.878
26892SOL     OW82682   7.192   8.553   2.939
26892SOL    HW182683   7.196   8.618   3.012
26892SOL    HW282684   7.135   8.598   2.875
26893SOL     OW82685   6.499   7.579   3.252
26893SOL    HW182686   6.529   7.541   3.167
26893SOL    HW282687   6.583   7.608   3.292
26894SOL     OW82688   6.585   8.565   3.593
26894SOL    HW182689   6.495   8.589   3.623
26894SOL    HW282690   6.568   8.486   3.537
26895SOL     OW82691   6.289   8.512   2.211
26895SOL    HW182692   6.280   8.494   2.306
26895SOL    HW282693   6.366   8.455   2.187
26896SOL     OW82694   6.007   8.258   3.126
26896SOL    HW182695   6.078   8.258   3.193
26896SOL    HW282696   5.966   8.170   3.139
26897SOL     OW82697   6.869   7.840   3.126
26897SOL    HW182698   6.885   7.914   3.187
26897SOL    HW282699   6.779   7.856   3.094
26898SOL     OW82700   5.663   9.016   3.207
26898SOL    HW182701   5.660   9.092   3.147
26898SOL    HW282702   5.758   8.994   3.206
26899SOL     OW82703   5.962   8.558   2.370
26899SOL    HW182704   5.959   8.626   2.302
26899SOL    HW282705   5.949   8.477   2.319
26900SOL     OW82706   6.128   7.992   2.716
26900SOL    HW182707   6.161   8.048   2.643
26900SOL    HW282708   6.192   8.011   2.786
26901SOL     OW82709   6.819   8.804   2.248
26901SOL    HW182710   6.864   8.878   2.291
26901SOL    HW282711   6.728   8.815   2.281
26902SOL     OW82712   6.891   8.916   3.032
26902SOL    HW182713   6.948   8.909   3.110
26902SOL    HW282714   6.826   8.845   3.045
26903SOL     OW82715   7.166   8.061   2.337
26903SOL    HW182716   7.114   8.114   2.399
26903SOL    HW282717   7.195   8.127   2.272
26904SOL     OW82718   5.924   8.962   3.177
26904SOL    HW182719   5.911   8.924   3.086
26904SOL    HW282720   6.020   8.977   3.174
26905SOL     OW82721   6.029   8.171   3.496
26905SOL    HW182722   6.077   8.217   3.424
26905SOL    HW282723   6.052   8.079   3.481
26906SOL     OW82724   7.207   8.220   3.549
26906SOL    HW182725   7.118   8.258   3.544
26906SOL    HW282726   7.252   8.265   3.475
26907SOL     OW82727   6.565   7.558   3.597
26907SOL    HW182728   6.639   7.619   3.603
26907SOL    HW282729   6.609   7.480   3.559
26908SOL     OW82730   6.178   8.336   2.916
26908SOL    HW182731   6.201   8.430   2.917
26908SOL    HW282732   6.116   8.326   2.990
26909SOL     OW82733   6.941   8.299   2.893
26909SOL    HW182734   6.857   8.271   2.856
26909SOL    HW282735   6.992   8.216   2.893
26910SOL     OW82736   6.813   7.971   2.127
26910SOL    HW182737   6.819   7.896   2.189
26910SOL    HW282738   6.751   8.029   2.176
26911SOL     OW82739   5.893   7.647   3.113
26911SOL    HW182740   5.839   7.676   3.189
26911SOL    HW282741   5.865   7.554   3.104
26912SOL     OW82742   5.627   8.750   3.134
26912SOL    HW182743   5.646   8.688   3.207
26912SOL    HW282744   5.628   8.837   3.177
26913SOL     OW82745   6.312   8.096   2.925
26913SOL    HW182746   6.389   8.083   2.867
26913SOL    HW282747   6.279   8.186   2.904
26914SOL     OW82748   7.346   8.395   3.713
26914SOL    HW182749   7.297   8.330   3.659
26914SOL    HW282750   7.282   8.414   3.783
26915SOL     OW82751   5.884   7.514   2.470
26915SOL    HW182752   5.858   7.606   2.489
26915SOL    HW282753   5.890   7.476   2.559
26916SOL     OW82754   7.179   7.832   2.207
26916SOL    HW182755   7.214   7.762   2.264
26916SOL    HW282756   7.170   7.908   2.268
26917SOL     OW82757   6.643   8.207   2.831
26917SOL    HW182758   6.626   8.222   2.925
26917SOL    HW282759   6.613   8.115   2.820
26918SOL     OW82760   6.563   9.019   3.561
26918SOL    HW182761   6.546   9.066   3.476
26918SOL    HW282762   6.588   8.930   3.530
26919SOL     OW82763   7.430   8.944   3.465
26919SOL    HW182764   7.458   8.963   3.374
26919SOL    HW282765   7.511   8.965   3.515
26920SOL     OW82766   5.937   8.351   3.660
26920SOL    HW182767   6.018   8.372   3.710
26920SOL    HW282768   5.965   8.273   3.607
26921SOL     OW82769   7.089   7.703   1.985
26921SOL    HW182770   7.025   7.639   2.020
26921SOL    HW282771   7.125   7.745   2.066
26922SOL     OW82772   6.890   8.293   1.888
26922SOL    HW182773   6.928   8.203   1.895
26922SOL    HW282774   6.922   8.320   1.799
26923SOL     OW82775   6.652   8.810   2.713
26923SOL    HW182776   6.661   8.736   2.649
26923SOL    HW282777   6.719   8.874   2.683
26924SOL     OW82778   5.869   8.267   2.867
26924SOL    HW182779   5.963   8.278   2.843
26924SOL    HW282780   5.866   8.173   2.887
26925SOL     OW82781   5.911   7.985   2.869
26925SOL    HW182782   5.879   7.894   2.851
26925SOL    HW282783   5.979   7.995   2.799
26926SOL     OW82784   6.741   7.822   3.559
26926SOL    HW182785   6.700   7.878   3.628
26926SOL    HW282786   6.831   7.860   3.555
26927SOL     OW82787   6.755   7.649   3.351
26927SOL    HW182788   6.752   7.716   3.422
26927SOL    HW282789   6.803   7.695   3.280
26928SOL     OW82790   5.580   8.771   2.061
26928SOL    HW182791   5.487   8.782   2.029
26928SOL    HW282792   5.579   8.679   2.093
26929SOL     OW82793   5.679   9.230   2.809
26929SOL    HW182794   5.643   9.157   2.752
26929SOL    HW282795   5.769   9.242   2.773
26930SOL     OW82796   6.069   9.038   2.797
26930SOL    HW182797   6.140   9.099   2.824
26930SOL    HW282798   6.116   8.975   2.739
26931SOL     OW82799   6.568   8.219   3.098
26931SOL    HW182800   6.611   8.185   3.179
26931SOL    HW282801   6.475   8.199   3.115
26932SOL     OW82802   5.609   7.965   2.968
26932SOL    HW182803   5.686   7.960   2.911
26932SOL    HW282804   5.648   7.987   3.054
26933SOL     OW82805   5.805   7.960   3.568
26933SOL    HW182806   5.860   7.923   3.497
26933SOL    HW282807   5.758   8.032   3.521
26934SOL     OW82808   6.975   8.363   3.514
26934SOL    HW182809   6.997   8.458   3.515
26934SOL    HW282810   6.970   8.344   3.419
26935SOL     OW82811   6.386   8.026   2.230
26935SOL    HW182812   6.397   7.952   2.168
26935SOL    HW282813   6.309   8.074   2.194
26936SOL     OW82814   7.226   8.071   3.071
26936SOL    HW182815   7.201   8.005   3.137
26936SOL    HW282816   7.309   8.034   3.036
26937SOL     OW82817   5.831   8.992   3.579
26937SOL    HW182818   5.818   9.050   3.656
26937SOL    HW282819   5.840   8.905   3.622
26938SOL     OW82820   6.262   7.926   3.128
26938SOL    HW182821   6.227   7.847   3.085
26938SOL    HW282822   6.268   7.991   3.054
26939SOL     OW82823   6.512   9.142   3.329
26939SOL    HW182824   6.496   9.096   3.245
26939SOL    HW282825   6.501   9.236   3.306
26940SOL     OW82826   6.030   7.917   2.063
26940SOL    HW182827   6.094   7.991   2.064
26940SOL    HW282828   5.946   7.966   2.057
26941SOL     OW82829   5.690   8.584   3.330
26941SOL    HW182830   5.702   8.529   3.411
26941SOL    HW282831   5.717   8.521   3.259
26942SOL     OW82832   6.909   8.488   3.096
26942SOL    HW182833   6.925   8.430   3.020
26942SOL    HW282834   6.846   8.552   3.059
26943SOL     OW82835   6.896   8.304   2.157
26943SOL    HW182836   6.816   8.272   2.199
26943SOL    HW282837   6.873   8.306   2.062
26944SOL     OW82838   7.344   9.192   2.993
26944SOL    HW182839   7.414   9.218   2.930
26944SOL    HW282840   7.330   9.098   2.969
26945SOL     OW82841   6.832   9.178   2.998
26945SOL    HW182842   6.918   9.194   2.957
26945SOL    HW282843   6.832   9.081   3.008
26946SOL     OW82844   5.689   8.706   2.880
26946SOL    HW182845   5.662   8.721   2.974
26946SOL    HW282846   5.609   8.667   2.843
26947SOL     OW82847   6.274   9.095   3.597
26947SOL    HW182848   6.224   9.176   3.582
26947SOL    HW282849   6.363   9.117   3.564
26948SOL     OW82850   7.268   7.586   2.350
26948SOL    HW182851   7.343   7.572   2.291
26948SOL    HW282852   7.267   7.505   2.405
26949SOL     OW82853   6.959   9.025   2.350
26949SOL    HW182854   7.013   9.045   2.271
26949SOL    HW282855   6.915   9.111   2.367
26950SOL     OW82856   5.735   9.253   3.698
26950SOL    HW182857   5.696   9.177   3.746
26950SOL    HW282858   5.786   9.295   3.768
26951SOL     OW82859   6.837   8.367   2.530
26951SOL    HW182860   6.917   8.314   2.546
26951SOL    HW282861   6.875   8.445   2.484
26952SOL     OW82862   6.378   8.694   3.296
26952SOL    HW182863   6.353   8.749   3.373
26952SOL    HW282864   6.305   8.714   3.235
26953SOL     OW82865   6.255   9.060   2.019
26953SOL    HW182866   6.264   9.077   1.924
26953SOL    HW282867   6.197   8.981   2.017
26954SOL     OW82868   7.213   9.173   3.252
26954SOL    HW182869   7.260   9.179   3.167
26954SOL    HW282870   7.192   9.265   3.271
26955SOL     OW82871   7.426   7.612   2.831
26955SOL    HW182872   7.444   7.522   2.799
26955SOL    HW282873   7.338   7.632   2.792
26956SOL     OW82874   5.835   7.764   2.572
26956SOL    HW182875   5.750   7.809   2.555
26956SOL    HW282876   5.843   7.768   2.669
26957SOL     OW82877   6.768   9.081   1.882
26957SOL    HW182878   6.772   8.985   1.899
26957SOL    HW282879   6.707   9.087   1.806
26958SOL     OW82880   6.404   8.437   3.239
26958SOL    HW182881   6.451   8.450   3.156
26958SOL    HW282882   6.392   8.529   3.270
26959SOL     OW82883   6.488   8.357   2.137
26959SOL    HW182884   6.560   8.392   2.080
26959SOL    HW282885   6.528   8.279   2.176
26960SOL     OW82886   7.133   9.080   1.895
26960SOL    HW182887   7.036   9.085   1.895
26960SOL    HW282888   7.152   9.081   1.799
26961SOL     OW82889   5.917   8.733   3.354
26961SOL    HW182890   5.911   8.802   3.286
26961SOL    HW282891   5.841   8.676   3.335
26962SOL     OW82892   7.194   8.757   3.125
26962SOL    HW182893   7.241   8.728   3.204
26962SOL    HW282894   7.137   8.828   3.161
26963SOL     OW82895   6.640   8.563   2.589
26963SOL    HW182896   6.561   8.516   2.619
26963SOL    HW282897   6.698   8.490   2.560
26964SOL     OW82898   6.610   7.674   2.853
26964SOL    HW182899   6.601   7.628   2.767
26964SOL    HW282900   6.616   7.597   2.914
26965SOL     OW82901   6.193   8.917   2.360
26965SOL    HW182902   6.251   8.890   2.287
26965SOL    HW282903   6.133   8.979   2.317
26966SOL     OW82904   7.298   7.823   3.236
26966SOL    HW182905   7.368   7.892   3.234
26966SOL    HW282906   7.341   7.751   3.184
26967SOL     OW82907   5.828   8.828   2.131
26967SOL    HW182908   5.731   8.816   2.123
26967SOL    HW282909   5.837   8.849   2.226
26968SOL     OW82910   5.715   8.464   3.561
26968SOL    HW182911   5.642   8.449   3.624
26968SOL    HW282912   5.793   8.428   3.610
26969SOL     OW82913   6.245   7.631   3.357
26969SOL    HW182914   6.330   7.619   3.309
26969SOL    HW282915   6.275   7.667   3.442
26970SOL     OW82916   5.692   7.798   1.881
26970SOL    HW182917   5.597   7.802   1.872
26970SOL    HW282918   5.722   7.867   1.819
26971SOL     OW82919   7.036   8.298   3.248
26971SOL    HW182920   6.988   8.362   3.192
26971SOL    HW282921   7.128   8.319   3.226
26972SOL     OW82922   5.637   7.617   2.158
26972SOL    HW182923   5.630   7.707   2.125
26972SOL    HW282924   5.720   7.586   2.118
26973SOL     OW82925   6.793   8.802   1.972
26973SOL    HW182926   6.702   8.769   1.980
26973SOL    HW282927   6.818   8.812   2.066
26974SOL     OW82928   6.205   8.256   3.303
26974SOL    HW182929   6.259   8.336   3.289
26974SOL    HW282930   6.276   8.189   3.314
26975SOL     OW82931   7.100   9.210   2.834
26975SOL    HW182932   7.129   9.244   2.749
26975SOL    HW282933   7.183   9.198   2.882
26976SOL     OW82934   6.364   7.961   3.580
26976SOL    HW182935   6.343   8.044   3.626
26976SOL    HW282936   6.460   7.971   3.568
26977SOL     OW82937   7.046   8.627   3.491
26977SOL    HW182938   7.038   8.634   3.588
26977SOL    HW282939   7.139   8.650   3.477
26978SOL     OW82940   5.957   9.185   3.424
26978SOL    HW182941   5.875   9.234   3.410
26978SOL    HW282942   5.924   9.099   3.456
26979SOL     OW82943   7.277   8.341   3.103
26979SOL    HW182944   7.261   8.251   3.069
26979SOL    HW282945   7.239   8.399   3.035
26980SOL     OW82946   6.793   7.776   2.331
26980SOL    HW182947   6.860   7.707   2.324
26980SOL    HW282948   6.828   7.829   2.406
26981SOL     OW82949   6.190   8.181   2.516
26981SOL    HW182950   6.222   8.271   2.503
26981SOL    HW282951   6.120   8.174   2.449
26982SOL     OW82952   7.352   7.828   3.498
26982SOL    HW182953   7.324   7.833   3.405
26982SOL    HW282954   7.279   7.775   3.536
26983SOL     OW82955   7.326   8.382   3.364
26983SOL    HW182956   7.316   8.479   3.366
26983SOL    HW282957   7.327   8.364   3.269
26984SOL     OW82958   6.443   8.813   1.897
26984SOL    HW182959   6.415   8.830   1.989
26984SOL    HW282960   6.465   8.902   1.864
26985SOL     OW82961   6.242   9.245   2.822
26985SOL    HW182962   6.220   9.333   2.786
26985SOL    HW282963   6.332   9.231   2.790
26986SOL     OW82964   6.455   8.394   2.707
26986SOL    HW182965   6.508   8.324   2.749
26986SOL    HW282966   6.435   8.453   2.781
26987SOL     OW82967   6.671   8.437   1.955
26987SOL    HW182968   6.647   8.499   1.884
26987SOL    HW282969   6.741   8.385   1.911
26988SOL     OW82970   7.449   9.013   2.690
26988SOL    HW182971   7.356   9.011   2.662
26988SOL    HW282972   7.457   8.934   2.744
26989SOL     OW82973   5.826   8.769   3.729
26989SOL    HW182974   5.754   8.707   3.711
26989SOL    HW282975   5.816   8.783   3.825
26990SOL     OW82976   5.677   8.697   2.523
26990SOL    HW182977   5.651   8.628   2.586
26990SOL    HW282978   5.761   8.663   2.491
26991SOL     OW82979   6.264   8.848   3.481
26991SOL    HW182980   6.186   8.800   3.514
26991SOL    HW282981   6.253   8.936   3.522
26992SOL     OW82982   7.405   7.615   3.092
26992SOL    HW182983   7.403   7.519   3.101
26992SOL    HW282984   7.414   7.624   2.995
26993SOL     OW82985   6.026   7.874   2.397
26993SOL    HW182986   6.065   7.803   2.345
26993SOL    HW282987   5.980   7.828   2.469
26994SOL     OW82988   7.291   8.940   2.944
26994SOL    HW182989   7.209   8.911   2.901
26994SOL    HW282990   7.296   8.877   3.018
26995SOL     OW82991   5.912   7.986   3.139
26995SOL    HW182992   5.994   7.948   3.174
26995SOL    HW282993   5.921   7.970   3.043
26996SOL     OW82994   6.410   9.036   2.545
26996SOL    HW182995   6.415   9.115   2.486
26996SOL    HW282996   6.319   9.007   2.536
26997SOL     OW82997   7.020   7.692   2.958
26997SOL    HW182998   7.049   7.610   3.001
26997SOL    HW282999   6.974   7.739   3.031
26998SOL     OW83000   6.605   7.454   3.019
26998SOL    HW183001   6.549   7.380   2.994
26998SOL    HW283002   6.694   7.413   3.013
26999SOL     OW83003   6.377   8.786   2.177
26999SOL    HW183004   6.339   8.697   2.184
26999SOL    HW283005   6.447   8.784   2.244
27000SOL     OW83006   6.186   9.003   3.131
27000SOL    HW183007   6.188   9.092   3.172
27000SOL    HW283008   6.279   8.996   3.104
27001SOL     OW83009   6.911   7.470   2.041
27001SOL    HW183010   6.916   7.404   1.970
27001SOL    HW283011   6.823   7.450   2.078
27002SOL     OW83012   6.891   7.920   2.541
27002SOL    HW183013   6.828   7.994   2.542
27002SOL    HW283014   6.869   7.873   2.624
27003SOL     OW83015   7.186   7.651   2.727
27003SOL    HW183016   7.112   7.666   2.788
27003SOL    HW283017   7.183   7.729   2.669
27004SOL     OW83018   5.626   8.517   2.162
27004SOL    HW183019   5.720   8.512   2.141
27004SOL    HW283020   5.607   8.425   2.190
27005SOL     OW83021   6.475   9.075   2.179
27005SOL    HW183022   6.394   9.068   2.126
27005SOL    HW283023   6.456   9.151   2.239
27006SOL     OW83024   5.819   8.088   3.860
27006SOL    HW183025   5.728   8.070   3.887
27006SOL    HW283026   5.822   8.064   3.766
27007SOL     OW83027   5.814   7.733   4.727
27007SOL    HW183028   5.835   7.702   4.817
27007SOL    HW283029   5.726   7.692   4.713
27008SOL     OW83030   5.594   7.841   4.334
27008SOL    HW183031   5.523   7.866   4.397
27008SOL    HW283032   5.569   7.751   4.311
27009SOL     OW83033   6.154   8.738   4.923
27009SOL    HW183034   6.066   8.732   4.883
27009SOL    HW283035   6.158   8.831   4.950
27010SOL     OW83036   7.141   8.972   4.443
27010SOL    HW183037   7.104   8.943   4.529
27010SOL    HW283038   7.066   8.958   4.382
27011SOL     OW83039   6.709   8.130   4.430
27011SOL    HW183040   6.744   8.216   4.402
27011SOL    HW283041   6.674   8.151   4.518
27012SOL     OW83042   7.353   8.057   3.961
27012SOL    HW183043   7.336   8.045   3.865
27012SOL    HW283044   7.303   7.983   3.999
27013SOL     OW83045   6.330   8.618   4.753
27013SOL    HW183046   6.268   8.663   4.814
27013SOL    HW283047   6.365   8.695   4.704
27014SOL     OW83048   6.464   8.219   5.538
27014SOL    HW183049   6.448   8.281   5.610
27014SOL    HW283050   6.487   8.277   5.463
27015SOL     OW83051   6.278   8.478   4.380
27015SOL    HW183052   6.340   8.446   4.448
27015SOL    HW283053   6.211   8.525   4.432
27016SOL     OW83054   6.283   8.607   5.530
27016SOL    HW183055   6.331   8.690   5.551
27016SOL    HW283056   6.195   8.639   5.502
27017SOL     OW83057   5.898   8.884   4.798
27017SOL    HW183058   5.833   8.830   4.750
27017SOL    HW283059   5.949   8.929   4.728
27018SOL     OW83060   7.060   8.950   5.098
27018SOL    HW183061   7.117   9.027   5.118
27018SOL    HW283062   6.991   8.958   5.166
27019SOL     OW83063   6.035   7.866   5.231
27019SOL    HW183064   6.102   7.798   5.238
27019SOL    HW283065   5.953   7.815   5.233
27020SOL     OW83066   7.204   7.900   4.466
27020SOL    HW183067   7.137   7.931   4.404
27020SOL    HW283068   7.182   7.952   4.545
27021SOL     OW83069   5.806   9.167   4.194
27021SOL    HW183070   5.836   9.244   4.247
27021SOL    HW283071   5.870   9.166   4.122
27022SOL     OW83072   6.706   8.796   5.382
27022SOL    HW183073   6.754   8.796   5.466
27022SOL    HW283074   6.663   8.709   5.387
27023SOL     OW83075   5.833   8.879   4.254
27023SOL    HW183076   5.829   8.976   4.265
27023SOL    HW283077   5.764   8.848   4.315
27024SOL     OW83078   5.858   8.528   4.625
27024SOL    HW183079   5.858   8.451   4.684
27024SOL    HW283080   5.803   8.591   4.675
27025SOL     OW83081   6.178   9.250   5.128
27025SOL    HW183082   6.109   9.221   5.191
27025SOL    HW283083   6.203   9.337   5.163
27026SOL     OW83084   6.157   8.430   3.842
27026SOL    HW183085   6.206   8.478   3.773
27026SOL    HW283086   6.199   8.467   3.923
27027SOL     OW83087   7.198   7.566   5.230
27027SOL    HW183088   7.204   7.643   5.172
27027SOL    HW283089   7.210   7.606   5.317
27028SOL     OW83090   5.706   8.094   4.288
27028SOL    HW183091   5.675   8.003   4.302
27028SOL    HW283092   5.698   8.133   4.377
27029SOL     OW83093   7.444   9.192   4.078
27029SOL    HW183094   7.505   9.179   4.153
27029SOL    HW283095   7.461   9.285   4.054
27030SOL     OW83096   5.653   9.042   3.841
27030SOL    HW183097   5.638   8.948   3.860
27030SOL    HW283098   5.619   9.084   3.922
27031SOL     OW83099   7.283   8.343   4.363
27031SOL    HW183100   7.352   8.307   4.305
27031SOL    HW283101   7.238   8.404   4.303
27032SOL     OW83102   7.224   8.564   4.163
27032SOL    HW183103   7.316   8.559   4.133
27032SOL    HW283104   7.231   8.630   4.235
27033SOL     OW83105   5.703   8.183   5.306
27033SOL    HW183106   5.795   8.210   5.298
27033SOL    HW283107   5.664   8.262   5.346
27034SOL     OW83108   6.178   8.859   4.479
27034SOL    HW183109   6.140   8.769   4.491
27034SOL    HW283110   6.165   8.870   4.383
27035SOL     OW83111   6.877   8.674   5.145
27035SOL    HW183112   6.900   8.597   5.090
27035SOL    HW283113   6.937   8.662   5.221
27036SOL     OW83114   6.414   7.448   4.202
27036SOL    HW183115   6.450   7.539   4.207
27036SOL    HW283116   6.321   7.461   4.225
27037SOL     OW83117   5.758   8.416   4.988
27037SOL    HW183118   5.849   8.384   4.978
27037SOL    HW283119   5.707   8.347   4.943
27038SOL     OW83120   7.120   8.423   3.917
27038SOL    HW183121   7.041   8.378   3.953
27038SOL    HW283122   7.160   8.461   3.997
27039SOL     OW83123   6.759   9.255   5.335
27039SOL    HW183124   6.764   9.319   5.264
27039SOL    HW283125   6.780   9.172   5.289
27040SOL     OW83126   5.918   7.697   5.520
27040SOL    HW183127   5.964   7.769   5.566
27040SOL    HW283128   5.827   7.708   5.552
27041SOL     OW83129   7.053   8.872   4.683
27041SOL    HW183130   6.994   8.891   4.759
27041SOL    HW283131   7.021   8.784   4.656
27042SOL     OW83132   7.254   9.178   4.330
27042SOL    HW183133   7.237   9.140   4.243
27042SOL    HW283134   7.219   9.107   4.387
27043SOL     OW83135   6.176   8.164   3.979
27043SOL    HW183136   6.176   8.253   3.939
27043SOL    HW283137   6.107   8.171   4.047
27044SOL     OW83138   6.850   7.783   4.635
27044SOL    HW183139   6.761   7.751   4.658
27044SOL    HW283140   6.905   7.743   4.706
27045SOL     OW83141   7.163   9.099   4.032
27045SOL    HW183142   7.257   9.119   4.036
27045SOL    HW283143   7.150   9.097   3.934
27046SOL     OW83144   6.396   8.067   5.188
27046SOL    HW183145   6.373   8.032   5.277
27046SOL    HW283146   6.346   8.007   5.130
27047SOL     OW83147   6.980   7.929   5.395
27047SOL    HW183148   6.982   7.987   5.474
27047SOL    HW283149   7.041   7.857   5.420
27048SOL     OW83150   6.548   8.337   5.304
27048SOL    HW183151   6.588   8.255   5.269
27048SOL    HW283152   6.502   8.371   5.224
27049SOL     OW83153   6.566   7.852   4.949
27049SOL    HW183154   6.474   7.876   4.967
27049SOL    HW283155   6.559   7.789   4.877
27050SOL     OW83156   6.627   8.126   4.138
27050SOL    HW183157   6.642   8.142   4.233
27050SOL    HW283158   6.539   8.083   4.139
27051SOL     OW83159   5.688   8.253   4.516
27051SOL    HW183160   5.763   8.262   4.578
27051SOL    HW283161   5.636   8.331   4.540
27052SOL     OW83162   5.693   9.292   5.292
27052SOL    HW183163   5.706   9.271   5.388
27052SOL    HW283164   5.597   9.284   5.284
27053SOL     OW83165   6.455   7.849   3.918
27053SOL    HW183166   6.499   7.904   3.852
27053SOL    HW283167   6.502   7.766   3.909
27054SOL     OW83168   7.298   8.038   5.566
27054SOL    HW183169   7.263   8.114   5.516
27054SOL    HW283170   7.335   7.983   5.495
27055SOL     OW83171   6.943   8.595   4.284
27055SOL    HW183172   7.020   8.589   4.227
27055SOL    HW283173   6.887   8.657   4.234
27056SOL     OW83174   6.139   7.645   4.609
27056SOL    HW183175   6.135   7.655   4.707
27056SOL    HW283176   6.127   7.736   4.578
27057SOL     OW83177   6.568   8.891   4.218
27057SOL    HW183178   6.527   8.955   4.156
27057SOL    HW283179   6.573   8.942   4.300
27058SOL     OW83180   5.930   9.264   4.579
27058SOL    HW183181   5.980   9.180   4.591
27058SOL    HW283182   5.998   9.330   4.599
27059SOL     OW83183   7.396   8.516   4.578
27059SOL    HW183184   7.340   8.483   4.506
27059SOL    HW283185   7.345   8.494   4.657
27060SOL     OW83186   6.805   9.012   5.214
27060SOL    HW183187   6.784   8.949   5.284
27060SOL    HW283188   6.761   8.971   5.138
27061SOL     OW83189   5.896   8.401   3.988
27061SOL    HW183190   5.971   8.425   3.931
27061SOL    HW283191   5.868   8.316   3.950
27062SOL     OW83192   7.064   8.202   4.436
27062SOL    HW183193   7.057   8.170   4.527
27062SOL    HW283194   7.149   8.250   4.436
27063SOL     OW83195   6.046   8.722   5.452
27063SOL    HW183196   6.007   8.722   5.361
27063SOL    HW283197   5.965   8.729   5.506
27064SOL     OW83198   6.683   9.219   3.971
27064SOL    HW183199   6.612   9.169   4.015
27064SOL    HW283200   6.688   9.176   3.885
27065SOL     OW83201   5.754   7.733   5.231
27065SOL    HW183202   5.673   7.773   5.264
27065SOL    HW283203   5.736   7.638   5.247
27066SOL     OW83204   7.209   8.816   3.817
27066SOL    HW183205   7.161   8.895   3.792
27066SOL    HW283206   7.152   8.744   3.782
27067SOL     OW83207   6.044   9.188   4.036
27067SOL    HW183208   6.094   9.235   4.107
27067SOL    HW283209   6.115   9.150   3.981
27068SOL     OW83210   6.993   7.543   4.161
27068SOL    HW183211   6.988   7.499   4.074
27068SOL    HW283212   7.088   7.563   4.169
27069SOL     OW83213   5.830   9.243   4.949
27069SOL    HW183214   5.885   9.174   4.988
27069SOL    HW283215   5.814   9.210   4.860
27070SOL     OW83216   6.543   9.146   4.608
27070SOL    HW183217   6.625   9.096   4.612
27070SOL    HW283218   6.495   9.098   4.538
27071SOL     OW83219   5.993   8.137   4.187
27071SOL    HW183220   6.012   8.043   4.207
27071SOL    HW283221   5.899   8.141   4.213
27072SOL     OW83222   7.128   7.712   5.454
27072SOL    HW183223   7.128   7.709   5.553
27072SOL    HW283224   7.067   7.640   5.433
27073SOL     OW83225   6.205   7.554   3.794
27073SOL    HW183226   6.281   7.523   3.845
27073SOL    HW283227   6.250   7.614   3.729
27074SOL     OW83228   6.359   7.711   5.455
27074SOL    HW183229   6.438   7.655   5.467
27074SOL    HW283230   6.305   7.685   5.531
27075SOL     OW83231   6.466   8.989   4.920
27075SOL    HW183232   6.460   8.968   4.825
27075SOL    HW283233   6.524   8.918   4.953
27076SOL     OW83234   6.925   8.043   5.149
27076SOL    HW183235   6.962   8.013   5.235
27076SOL    HW283236   6.970   8.128   5.134
27077SOL     OW83237   6.394   8.867   4.649
27077SOL    HW183238   6.479   8.850   4.604
27077SOL    HW283239   6.330   8.865   4.576
27078SOL     OW83240   6.526   7.974   4.637
27078SOL    HW183241   6.505   7.961   4.542
27078SOL    HW283242   6.553   7.885   4.662
27079SOL     OW83243   6.146   7.496   4.223
27079SOL    HW183244   6.071   7.500   4.284
27079SOL    HW283245   6.129   7.572   4.164
27080SOL     OW83246   7.029   8.625   3.753
27080SOL    HW183247   7.057   8.550   3.809
27080SOL    HW283248   6.937   8.639   3.779
27081SOL     OW83249   5.887   7.493   3.897
27081SOL    HW183250   5.935   7.575   3.914
27081SOL    HW283251   5.941   7.429   3.948
27082SOL     OW83252   6.517   7.699   4.219
27082SOL    HW183253   6.494   7.756   4.145
27082SOL    HW283254   6.613   7.714   4.225
27083SOL     OW83255   6.673   8.125   5.193
27083SOL    HW183256   6.616   8.047   5.197
27083SOL    HW283257   6.763   8.088   5.187
27084SOL     OW83258   6.811   9.039   4.520
27084SOL    HW183259   6.819   9.096   4.442
27084SOL    HW283260   6.892   9.061   4.567
27085SOL     OW83261   6.063   8.616   4.473
27085SOL    HW183262   5.991   8.576   4.527
27085SOL    HW283263   6.030   8.595   4.383
27086SOL     OW83264   6.862   9.250   4.341
27086SOL    HW183265   6.909   9.313   4.284
27086SOL    HW283266   6.812   9.310   4.399
27087SOL     OW83267   6.647   7.990   3.747
27087SOL    HW183268   6.602   8.076   3.738
27087SOL    HW283269   6.715   8.006   3.814
27088SOL     OW83270   5.647   7.998   5.115
27088SOL    HW183271   5.743   7.985   5.104
27088SOL    HW283272   5.645   8.072   5.179
27089SOL     OW83273   6.144   7.662   4.880
27089SOL    HW183274   6.197   7.603   4.934
27089SOL    HW283275   6.055   7.651   4.920
27090SOL     OW83276   6.462   7.912   4.390
27090SOL    HW183277   6.414   7.959   4.321
27090SOL    HW283278   6.469   7.822   4.356
27091SOL     OW83279   6.608   7.526   4.494
27091SOL    HW183280   6.574   7.501   4.408
27091SOL    HW283281   6.592   7.445   4.546
27092SOL     OW83282   6.996   8.618   4.609
27092SOL    HW183283   6.946   8.540   4.637
27092SOL    HW283284   6.993   8.612   4.513
27093SOL     OW83285   7.073   8.011   4.700
27093SOL    HW183286   7.018   7.933   4.716
27093SOL    HW283287   7.134   8.013   4.775
27094SOL     OW83288   7.434   8.268   4.117
27094SOL    HW183289   7.485   8.209   4.176
27094SOL    HW283290   7.407   8.204   4.047
27095SOL     OW83291   6.079   8.868   3.860
27095SOL    HW183292   5.994   8.856   3.905
27095SOL    HW283293   6.067   8.820   3.778
27096SOL     OW83294   7.261   8.733   4.369
27096SOL    HW183295   7.358   8.741   4.374
27096SOL    HW283296   7.229   8.818   4.405
27097SOL     OW83297   7.001   8.041   3.792
27097SOL    HW183298   6.951   8.013   3.871
27097SOL    HW283299   7.091   8.015   3.816
27098SOL     OW83300   6.107   7.680   4.033
27098SOL    HW183301   6.151   7.657   3.950
27098SOL    HW283302   6.077   7.770   4.014
27099SOL     OW83303   7.320   8.680   5.295
27099SOL    HW183304   7.406   8.639   5.307
27099SOL    HW283305   7.342   8.773   5.312
27100SOL     OW83306   6.657   8.815   5.064
27100SOL    HW183307   6.581   8.778   5.112
27100SOL    HW283308   6.731   8.764   5.104
27101SOL     OW83309   7.191   9.050   5.364
27101SOL    HW183310   7.206   9.097   5.280
27101SOL    HW283311   7.270   8.993   5.369
27102SOL     OW83312   6.708   8.678   4.820
27102SOL    HW183313   6.647   8.707   4.889
27102SOL    HW283314   6.673   8.721   4.740
27103SOL     OW83315   7.186   8.543   4.802
27103SOL    HW183316   7.194   8.605   4.877
27103SOL    HW283317   7.130   8.593   4.740
27104SOL     OW83318   6.498   7.573   5.105
27104SOL    HW183319   6.532   7.532   5.023
27104SOL    HW283320   6.579   7.612   5.142
27105SOL     OW83321   6.580   8.565   5.458
27105SOL    HW183322   6.489   8.590   5.482
27105SOL    HW283323   6.567   8.489   5.398
27106SOL     OW83324   6.297   8.511   4.065
27106SOL    HW183325   6.284   8.493   4.160
27106SOL    HW283326   6.373   8.452   4.045
27107SOL     OW83327   6.005   8.259   4.988
27107SOL    HW183328   6.079   8.256   5.052
27107SOL    HW283329   5.964   8.171   5.001
27108SOL     OW83330   6.869   7.839   4.987
27108SOL    HW183331   6.891   7.915   5.044
27108SOL    HW283332   6.778   7.858   4.959
27109SOL     OW83333   5.658   9.023   5.063
27109SOL    HW183334   5.660   9.116   5.036
27109SOL    HW283335   5.753   8.999   5.062
27110SOL     OW83336   5.960   8.554   4.234
27110SOL    HW183337   5.982   8.616   4.164
27110SOL    HW283338   5.932   8.476   4.185
27111SOL     OW83339   6.120   7.995   4.568
27111SOL    HW183340   6.153   8.059   4.503
27111SOL    HW283341   6.180   8.007   4.644
27112SOL     OW83342   6.806   8.782   4.119
27112SOL    HW183343   6.854   8.859   4.156
27112SOL    HW283344   6.715   8.801   4.148
27113SOL     OW83345   6.885   8.924   4.896
27113SOL    HW183346   6.947   8.920   4.971
27113SOL    HW283347   6.819   8.857   4.918
27114SOL     OW83348   7.173   8.060   4.198
27114SOL    HW183349   7.122   8.114   4.261
27114SOL    HW283350   7.203   8.126   4.134
27115SOL     OW83351   5.923   8.956   5.045
27115SOL    HW183352   5.912   8.922   4.953
27115SOL    HW283353   6.018   8.980   5.042
27116SOL     OW83354   6.026   8.178   5.353
27116SOL    HW183355   6.078   8.224   5.285
27116SOL    HW283356   6.057   8.087   5.343
27117SOL     OW83357   7.213   8.228   5.404
27117SOL    HW183358   7.123   8.265   5.402
27117SOL    HW283359   7.257   8.278   5.331
27118SOL     OW83360   6.584   7.565   5.493
27118SOL    HW183361   6.642   7.639   5.471
27118SOL    HW283362   6.633   7.492   5.451
27119SOL     OW83363   6.089   7.475   5.469
27119SOL    HW183364   6.038   7.416   5.411
27119SOL    HW283365   6.026   7.549   5.481
27120SOL     OW83366   6.167   8.352   4.771
27120SOL    HW183367   6.205   8.441   4.776
27120SOL    HW283368   6.119   8.343   4.855
27121SOL     OW83369   6.943   8.309   4.738
27121SOL    HW183370   6.858   8.273   4.708
27121SOL    HW283371   6.992   8.229   4.758
27122SOL     OW83372   6.804   7.972   3.986
27122SOL    HW183373   6.815   7.903   4.054
27122SOL    HW283374   6.746   8.034   4.033
27123SOL     OW83375   5.891   7.631   4.979
27123SOL    HW183376   5.842   7.660   5.057
27123SOL    HW283377   5.862   7.537   4.971
27124SOL     OW83378   5.625   8.751   5.009
27124SOL    HW183379   5.644   8.697   5.088
27124SOL    HW283380   5.627   8.842   5.042
27125SOL     OW83381   6.298   8.093   4.772
27125SOL    HW183382   6.378   8.067   4.724
27125SOL    HW283383   6.280   8.185   4.745
27126SOL     OW83384   7.355   8.397   5.570
27126SOL    HW183385   7.299   8.338   5.516
27126SOL    HW283386   7.302   8.404   5.650
27127SOL     OW83387   5.892   7.502   4.332
27127SOL    HW183388   5.866   7.592   4.359
27127SOL    HW283389   5.900   7.458   4.419
27128SOL     OW83390   7.182   7.829   4.070
27128SOL    HW183391   7.216   7.757   4.126
27128SOL    HW283392   7.174   7.903   4.134
27129SOL     OW83393   6.638   8.207   4.697
27129SOL    HW183394   6.623   8.218   4.793
27129SOL    HW283395   6.606   8.115   4.684
27130SOL     OW83396   6.560   9.015   5.423
27130SOL    HW183397   6.548   9.064   5.338
27130SOL    HW283398   6.595   8.929   5.392
27131SOL     OW83399   7.438   8.934   5.325
27131SOL    HW183400   7.460   8.963   5.235
27131SOL    HW283401   7.515   8.963   5.376
27132SOL     OW83402   5.934   8.358   5.524
27132SOL    HW183403   6.015   8.384   5.570
27132SOL    HW283404   5.963   8.278   5.473
27133SOL     OW83405   7.090   7.698   3.852
27133SOL    HW183406   7.017   7.646   3.890
27133SOL    HW283407   7.127   7.743   3.930
27134SOL     OW83408   6.880   8.283   3.753
27134SOL    HW183409   6.933   8.201   3.765
27134SOL    HW283410   6.906   8.308   3.662
27135SOL     OW83411   6.649   8.812   4.570
27135SOL    HW183412   6.666   8.736   4.511
27135SOL    HW283413   6.723   8.873   4.552
27136SOL     OW83414   5.873   8.273   4.724
27136SOL    HW183415   5.968   8.289   4.712
27136SOL    HW283416   5.872   8.180   4.751
27137SOL     OW83417   5.914   7.987   4.736
27137SOL    HW183418   5.887   7.894   4.725
27137SOL    HW283419   5.977   7.997   4.661
27138SOL     OW83420   6.740   7.807   5.422
27138SOL    HW183421   6.691   7.865   5.484
27138SOL    HW283422   6.825   7.853   5.417
27139SOL     OW83423   6.751   7.657   5.189
27139SOL    HW183424   6.758   7.710   5.270
27139SOL    HW283425   6.801   7.709   5.125
27140SOL     OW83426   5.593   8.773   3.915
27140SOL    HW183427   5.499   8.786   3.888
27140SOL    HW283428   5.592   8.681   3.950
27141SOL     OW83429   5.684   9.226   4.675
27141SOL    HW183430   5.653   9.152   4.618
27141SOL    HW283431   5.774   9.242   4.638
27142SOL     OW83432   6.066   9.031   4.650
27142SOL    HW183433   6.134   9.098   4.670
27142SOL    HW283434   6.114   8.970   4.591
27143SOL     OW83435   6.561   8.218   4.959
27143SOL    HW183436   6.610   8.184   5.037
27143SOL    HW283437   6.471   8.189   4.979
27144SOL     OW83438   5.618   7.977   4.830
27144SOL    HW183439   5.702   7.963   4.785
27144SOL    HW283440   5.644   7.982   4.923
27145SOL     OW83441   5.798   7.969   5.454
27145SOL    HW183442   5.820   7.897   5.394
27145SOL    HW283443   5.752   8.033   5.396
27146SOL     OW83444   6.973   8.374   5.371
27146SOL    HW183445   7.002   8.467   5.374
27146SOL    HW283446   6.975   8.355   5.276
27147SOL     OW83447   6.381   8.026   4.110
27147SOL    HW183448   6.396   7.962   4.037
27147SOL    HW283449   6.310   8.081   4.074
27148SOL     OW83450   7.233   8.071   4.928
27148SOL    HW183451   7.207   8.004   4.994
27148SOL    HW283452   7.317   8.034   4.893
27149SOL     OW83453   5.834   8.989   5.441
27149SOL    HW183454   5.820   9.053   5.512
27149SOL    HW283455   5.844   8.906   5.491
27150SOL     OW83456   6.281   7.922   4.979
27150SOL    HW183457   6.219   7.854   4.951
27150SOL    HW283458   6.274   7.989   4.909
27151SOL     OW83459   6.506   9.147   5.196
27151SOL    HW183460   6.498   9.112   5.106
27151SOL    HW283461   6.503   9.243   5.182
27152SOL     OW83462   6.031   7.923   3.922
27152SOL    HW183463   6.100   7.993   3.926
27152SOL    HW283464   5.951   7.978   3.917
27153SOL     OW83465   5.695   8.576   5.197
27153SOL    HW183466   5.704   8.517   5.276
27153SOL    HW283467   5.715   8.514   5.123
27154SOL     OW83468   6.905   8.482   4.958
27154SOL    HW183469   6.923   8.428   4.879
27154SOL    HW283470   6.845   8.550   4.921
27155SOL     OW83471   6.898   8.303   4.022
27155SOL    HW183472   6.815   8.275   4.062
27155SOL    HW283473   6.877   8.304   3.927
27156SOL     OW83474   7.334   9.192   4.856
27156SOL    HW183475   7.408   9.216   4.797
27156SOL    HW283476   7.330   9.095   4.844
27157SOL     OW83477   6.822   9.180   4.840
27157SOL    HW183478   6.911   9.200   4.809
27157SOL    HW283479   6.829   9.084   4.861
27158SOL     OW83480   5.696   8.701   4.757
27158SOL    HW183481   5.664   8.719   4.848
27158SOL    HW283482   5.617   8.661   4.716
27159SOL     OW83483   6.281   9.090   5.468
27159SOL    HW183484   6.243   9.175   5.443
27159SOL    HW283485   6.372   9.096   5.434
27160SOL     OW83486   7.263   7.601   4.205
27160SOL    HW183487   7.338   7.583   4.146
27160SOL    HW283488   7.257   7.518   4.256
27161SOL     OW83489   6.956   9.018   4.206
27161SOL    HW183490   7.015   9.040   4.132
27161SOL    HW283491   6.915   9.103   4.228
27162SOL     OW83492   5.733   9.241   5.552
27162SOL    HW183493   5.691   9.169   5.602
27162SOL    HW283494   5.781   9.287   5.623
27163SOL     OW83495   6.839   8.364   4.380
27163SOL    HW183496   6.920   8.314   4.397
27163SOL    HW283497   6.874   8.446   4.342
27164SOL     OW83498   6.402   8.711   5.159
27164SOL    HW183499   6.368   8.753   5.241
27164SOL    HW283500   6.333   8.736   5.096
27165SOL     OW83501   6.254   9.066   3.881
27165SOL    HW183502   6.267   9.077   3.785
27165SOL    HW283503   6.194   8.987   3.882
27166SOL     OW83504   7.215   9.170   5.120
27166SOL    HW183505   7.254   9.186   5.032
27166SOL    HW283506   7.197   9.261   5.151
27167SOL     OW83507   7.423   7.613   4.691
27167SOL    HW183508   7.448   7.522   4.665
27167SOL    HW283509   7.337   7.627   4.647
27168SOL     OW83510   5.845   7.752   4.427
27168SOL    HW183511   5.766   7.803   4.402
27168SOL    HW283512   5.846   7.762   4.524
27169SOL     OW83513   6.770   9.076   3.746
27169SOL    HW183514   6.774   8.981   3.769
27169SOL    HW283515   6.711   9.077   3.669
27170SOL     OW83516   6.407   8.449   5.102
27170SOL    HW183517   6.447   8.454   5.014
27170SOL    HW283518   6.406   8.543   5.130
27171SOL     OW83519   6.497   8.354   4.001
27171SOL    HW183520   6.569   8.387   3.944
27171SOL    HW283521   6.534   8.273   4.039
27172SOL     OW83522   7.126   9.105   3.765
27172SOL    HW183523   7.034   9.080   3.748
27172SOL    HW283524   7.166   9.097   3.675
27173SOL     OW83525   5.926   8.727   5.215
27173SOL    HW183526   5.915   8.800   5.152
27173SOL    HW283527   5.845   8.675   5.205
27174SOL     OW83528   7.190   8.751   4.994
27174SOL    HW183529   7.232   8.723   5.077
27174SOL    HW283530   7.131   8.822   5.027
27175SOL     OW83531   6.636   8.565   4.441
27175SOL    HW183532   6.565   8.514   4.483
27175SOL    HW283533   6.696   8.495   4.411
27176SOL     OW83534   6.610   7.677   4.715
27176SOL    HW183535   6.599   7.632   4.629
27176SOL    HW283536   6.616   7.600   4.775
27177SOL     OW83537   6.197   8.929   4.216
27177SOL    HW183538   6.250   8.886   4.147
27177SOL    HW283539   6.126   8.970   4.165
27178SOL     OW83540   7.303   7.816   5.100
27178SOL    HW183541   7.369   7.887   5.096
27178SOL    HW283542   7.346   7.746   5.046
27179SOL     OW83543   5.834   8.827   3.994
27179SOL    HW183544   5.738   8.809   3.984
27179SOL    HW283545   5.840   8.845   4.090
27180SOL     OW83546   5.705   8.443   5.423
27180SOL    HW183547   5.634   8.433   5.490
27180SOL    HW283548   5.787   8.416   5.472
27181SOL     OW83549   6.253   7.634   5.207
27181SOL    HW183550   6.340   7.611   5.169
27181SOL    HW283551   6.279   7.673   5.293
27182SOL     OW83552   5.691   7.788   3.732
27182SOL    HW183553   5.596   7.789   3.722
27182SOL    HW283554   5.719   7.860   3.671
27183SOL     OW83555   7.039   8.308   5.112
27183SOL    HW183556   6.992   8.373   5.055
27183SOL    HW283557   7.131   8.336   5.102
27184SOL     OW83558   5.632   7.608   4.017
27184SOL    HW183559   5.620   7.698   3.984
27184SOL    HW283560   5.719   7.585   3.982
27185SOL     OW83561   6.780   8.798   3.840
27185SOL    HW183562   6.693   8.757   3.841
27185SOL    HW283563   6.805   8.794   3.934
27186SOL     OW83564   6.210   8.260   5.157
27186SOL    HW183565   6.263   8.340   5.152
27186SOL    HW283566   6.280   8.193   5.171
27187SOL     OW83567   7.089   9.216   4.689
27187SOL    HW183568   7.128   9.259   4.612
27187SOL    HW283569   7.166   9.193   4.743
27188SOL     OW83570   6.314   7.995   5.430
27188SOL    HW183571   6.353   8.060   5.491
27188SOL    HW283572   6.329   7.909   5.472
27189SOL     OW83573   7.054   8.630   5.345
27189SOL    HW183574   7.045   8.635   5.442
27189SOL    HW283575   7.149   8.651   5.332
27190SOL     OW83576   5.959   9.185   5.288
27190SOL    HW183577   5.873   9.228   5.271
27190SOL    HW283578   5.930   9.099   5.324
27191SOL     OW83579   7.305   8.329   4.957
27191SOL    HW183580   7.282   8.238   4.933
27191SOL    HW283581   7.259   8.383   4.890
27192SOL     OW83582   6.794   7.779   4.194
27192SOL    HW183583   6.855   7.703   4.194
27192SOL    HW283584   6.828   7.830   4.271
27193SOL     OW83585   6.182   8.192   4.385
27193SOL    HW183586   6.206   8.285   4.376
27193SOL    HW283587   6.117   8.180   4.314
27194SOL     OW83588   7.359   7.824   5.360
27194SOL    HW183589   7.330   7.834   5.267
27194SOL    HW283590   7.281   7.782   5.401
27195SOL     OW83591   7.317   8.391   5.220
27195SOL    HW183592   7.337   8.485   5.219
27195SOL    HW283593   7.339   8.363   5.129
27196SOL     OW83594   6.446   8.814   3.751
27196SOL    HW183595   6.423   8.829   3.845
27196SOL    HW283596   6.467   8.902   3.717
27197SOL     OW83597   6.224   9.248   4.649
27197SOL    HW183598   6.214   9.343   4.632
27197SOL    HW283599   6.320   9.236   4.653
27198SOL     OW83600   6.462   8.395   4.571
27198SOL    HW183601   6.511   8.322   4.613
27198SOL    HW283602   6.444   8.454   4.645
27199SOL     OW83603   6.670   8.440   3.817
27199SOL    HW183604   6.648   8.500   3.743
27199SOL    HW283605   6.736   8.381   3.775
27200SOL     OW83606   7.462   8.998   4.558
27200SOL    HW183607   7.370   8.997   4.528
27200SOL    HW283608   7.459   8.936   4.633
27201SOL     OW83609   5.824   8.763   5.595
27201SOL    HW183610   5.748   8.706   5.579
27201SOL    HW283611   5.820   8.775   5.691
27202SOL     OW83612   5.673   8.695   4.385
27202SOL    HW183613   5.678   8.646   4.468
27202SOL    HW283614   5.751   8.661   4.338
27203SOL     OW83615   6.260   8.849   5.346
27203SOL    HW183616   6.183   8.798   5.377
27203SOL    HW283617   6.248   8.934   5.392
27204SOL     OW83618   7.407   7.620   4.953
27204SOL    HW183619   7.428   7.527   4.966
27204SOL    HW283620   7.413   7.629   4.855
27205SOL     OW83621   6.021   7.880   4.254
27205SOL    HW183622   6.067   7.805   4.214
27205SOL    HW283623   5.980   7.840   4.333
27206SOL     OW83624   7.311   8.932   4.804
27206SOL    HW183625   7.227   8.900   4.767
27206SOL    HW283626   7.317   8.876   4.883
27207SOL     OW83627   5.911   7.993   5.016
27207SOL    HW183628   5.983   7.951   5.068
27207SOL    HW283629   5.932   7.968   4.924
27208SOL     OW83630   6.403   9.043   4.398
27208SOL    HW183631   6.396   9.080   4.309
27208SOL    HW283632   6.320   8.994   4.408
27209SOL     OW83633   7.016   7.692   4.819
27209SOL    HW183634   7.048   7.611   4.860
27209SOL    HW283635   6.972   7.738   4.894
27210SOL     OW83636   6.604   7.436   4.886
27210SOL    HW183637   6.553   7.359   4.859
27210SOL    HW283638   6.696   7.402   4.878
27211SOL     OW83639   6.381   8.786   4.034
27211SOL    HW183640   6.345   8.696   4.030
27211SOL    HW283641   6.446   8.779   4.105
27212SOL     OW83642   6.184   9.008   4.991
27212SOL    HW183643   6.183   9.093   5.038
27212SOL    HW283644   6.278   9.002   4.969
27213SOL     OW83645   6.897   7.468   3.909
27213SOL    HW183646   6.911   7.399   3.843
27213SOL    HW283647   6.807   7.444   3.942
27214SOL     OW83648   6.893   7.921   4.407
27214SOL    HW183649   6.826   7.991   4.402
27214SOL    HW283650   6.875   7.881   4.495
27215SOL     OW83651   7.182   7.658   4.583
27215SOL    HW183652   7.103   7.666   4.638
27215SOL    HW283653   7.182   7.741   4.533
27216SOL     OW83654   5.634   8.524   4.027
27216SOL    HW183655   5.728   8.511   4.010
27216SOL    HW283656   5.605   8.432   4.044
27217SOL     OW83657   6.461   9.094   4.057
27217SOL    HW183658   6.383   9.078   4.000
27217SOL    HW283659   6.437   9.174   4.108
27218SOL     OW83660   5.820   8.073   5.717
27218SOL    HW183661   5.727   8.069   5.741
27218SOL    HW283662   5.821   8.056   5.621
27219SOL     OW83663   5.791   7.746   6.587
27219SOL    HW183664   5.816   7.720   6.678
27219SOL    HW283665   5.708   7.694   6.575
27220SOL     OW83666   5.566   7.808   6.224
27220SOL    HW183667   5.488   7.838   6.274
27220SOL    HW283668   5.530   7.727   6.183
27221SOL     OW83669   6.158   8.733   6.785
27221SOL    HW183670   6.070   8.733   6.746
27221SOL    HW283671   6.168   8.827   6.811
27222SOL     OW83672   7.128   8.983   6.314
27222SOL    HW183673   7.099   8.946   6.400
27222SOL    HW283674   7.061   8.951   6.251
27223SOL     OW83675   6.703   8.136   6.285
27223SOL    HW183676   6.746   8.221   6.265
27223SOL    HW283677   6.682   8.147   6.379
27224SOL     OW83678   7.357   8.055   5.824
27224SOL    HW183679   7.337   8.054   5.729
27224SOL    HW283680   7.302   7.982   5.857
27225SOL     OW83681   6.309   8.606   6.603
27225SOL    HW183682   6.256   8.649   6.673
27225SOL    HW283683   6.353   8.683   6.563
27226SOL     OW83684   6.464   8.196   7.387
27226SOL    HW183685   6.436   8.263   7.451
27226SOL    HW283686   6.485   8.250   7.308
27227SOL     OW83687   6.276   8.479   6.242
27227SOL    HW183688   6.341   8.449   6.308
27227SOL    HW283689   6.211   8.528   6.295
27228SOL     OW83690   6.283   8.603   7.390
27228SOL    HW183691   6.329   8.688   7.408
27228SOL    HW283692   6.196   8.633   7.357
27229SOL     OW83693   5.910   8.868   6.652
27229SOL    HW183694   5.838   8.827   6.602
27229SOL    HW283695   5.955   8.926   6.587
27230SOL     OW83696   7.060   8.951   6.961
27230SOL    HW183697   7.113   9.032   6.975
27230SOL    HW283698   6.992   8.959   7.029
27231SOL     OW83699   6.009   7.846   7.122
27231SOL    HW183700   6.086   7.791   7.101
27231SOL    HW283701   5.934   7.791   7.094
27232SOL     OW83702   7.217   7.899   6.330
27232SOL    HW183703   7.145   7.932   6.274
27232SOL    HW283704   7.232   7.976   6.386
27233SOL     OW83705   5.808   9.170   6.062
27233SOL    HW183706   5.838   9.247   6.115
27233SOL    HW283707   5.866   9.175   5.985
27234SOL     OW83708   6.720   8.798   7.250
27234SOL    HW183709   6.758   8.803   7.338
27234SOL    HW283710   6.680   8.709   7.253
27235SOL     OW83711   5.840   8.892   6.115
27235SOL    HW183712   5.835   8.988   6.120
27235SOL    HW283713   5.771   8.864   6.177
27236SOL     OW83714   5.860   8.524   6.483
27236SOL    HW183715   5.864   8.452   6.548
27236SOL    HW283716   5.811   8.592   6.533
27237SOL     OW83717   6.183   9.240   6.978
27237SOL    HW183718   6.116   9.216   7.045
27237SOL    HW283719   6.214   9.326   7.011
27238SOL     OW83720   6.158   8.449   5.712
27238SOL    HW183721   6.208   8.497   5.643
27238SOL    HW283722   6.203   8.480   5.793
27239SOL     OW83723   7.200   7.560   7.086
27239SOL    HW183724   7.189   7.638   7.030
27239SOL    HW283725   7.212   7.599   7.173
27240SOL     OW83726   5.697   8.096   6.148
27240SOL    HW183727   5.673   8.003   6.163
27240SOL    HW283728   5.692   8.133   6.239
27241SOL     OW83729   7.435   9.197   5.932
27241SOL    HW183730   7.507   9.177   5.995
27241SOL    HW283731   7.456   9.288   5.907
27242SOL     OW83732   5.647   9.038   5.702
27242SOL    HW183733   5.634   8.943   5.721
27242SOL    HW283734   5.608   9.079   5.781
27243SOL     OW83735   7.220   8.567   6.007
27243SOL    HW183736   7.315   8.556   5.990
27243SOL    HW283737   7.221   8.575   6.104
27244SOL     OW83738   5.707   8.189   7.170
27244SOL    HW183739   5.803   8.204   7.169
27244SOL    HW283740   5.677   8.271   7.213
27245SOL     OW83741   6.188   8.859   6.351
27245SOL    HW183742   6.149   8.770   6.366
27245SOL    HW283743   6.179   8.864   6.254
27246SOL     OW83744   6.882   8.681   7.010
27246SOL    HW183745   6.908   8.609   6.951
27246SOL    HW283746   6.939   8.667   7.088
27247SOL     OW83747   6.410   7.433   6.050
27247SOL    HW183748   6.445   7.523   6.058
27247SOL    HW283749   6.316   7.446   6.072
27248SOL     OW83750   5.754   8.420   6.837
27248SOL    HW183751   5.847   8.392   6.835
27248SOL    HW283752   5.709   8.343   6.800
27249SOL     OW83753   7.133   8.413   5.770
27249SOL    HW183754   7.055   8.365   5.804
27249SOL    HW283755   7.166   8.454   5.852
27250SOL     OW83756   6.768   9.250   7.207
27250SOL    HW183757   6.779   9.319   7.140
27250SOL    HW283758   6.782   9.169   7.154
27251SOL     OW83759   5.922   7.675   7.395
27251SOL    HW183760   5.967   7.760   7.396
27251SOL    HW283761   5.833   7.702   7.425
27252SOL     OW83762   7.053   8.873   6.548
27252SOL    HW183763   6.990   8.890   6.621
27252SOL    HW283764   7.027   8.783   6.519
27253SOL     OW83765   7.250   9.180   6.191
27253SOL    HW183766   7.241   9.145   6.101
27253SOL    HW283767   7.214   9.107   6.245
27254SOL     OW83768   6.169   8.158   5.846
27254SOL    HW183769   6.173   8.249   5.814
27254SOL    HW283770   6.100   8.162   5.915
27255SOL     OW83771   6.856   7.784   6.497
27255SOL    HW183772   6.768   7.750   6.520
27255SOL    HW283773   6.913   7.744   6.566
27256SOL     OW83774   7.166   9.083   5.894
27256SOL    HW183775   7.259   9.109   5.899
27256SOL    HW283776   7.154   9.083   5.797
27257SOL     OW83777   6.385   8.075   7.050
27257SOL    HW183778   6.370   8.033   7.137
27257SOL    HW283779   6.342   8.012   6.989
27258SOL     OW83780   6.980   7.931   7.253
27258SOL    HW183781   6.985   7.991   7.330
27258SOL    HW283782   7.042   7.860   7.278
27259SOL     OW83783   6.539   8.332   7.168
27259SOL    HW183784   6.580   8.251   7.130
27259SOL    HW283785   6.495   8.369   7.088
27260SOL     OW83786   6.568   7.852   6.817
27260SOL    HW183787   6.476   7.876   6.837
27260SOL    HW283788   6.560   7.790   6.744
27261SOL     OW83789   6.625   8.134   5.998
27261SOL    HW183790   6.638   8.150   6.093
27261SOL    HW283791   6.540   8.085   5.997
27262SOL     OW83792   5.695   8.236   6.372
27262SOL    HW183793   5.766   8.243   6.439
27262SOL    HW283794   5.661   8.325   6.367
27263SOL     OW83795   5.695   9.293   7.151
27263SOL    HW183796   5.711   9.267   7.245
27263SOL    HW283797   5.600   9.289   7.144
27264SOL     OW83798   6.464   7.813   5.801
27264SOL    HW183799   6.505   7.872   5.737
27264SOL    HW283800   6.477   7.727   5.760
27265SOL     OW83801   7.311   8.033   7.425
27265SOL    HW183802   7.273   8.111   7.379
27265SOL    HW283803   7.337   7.978   7.350
27266SOL     OW83804   6.943   8.596   6.140
27266SOL    HW183805   7.025   8.583   6.090
27266SOL    HW283806   6.897   8.660   6.084
27267SOL     OW83807   6.130   7.651   6.481
27267SOL    HW183808   6.139   7.663   6.578
27267SOL    HW283809   6.119   7.741   6.449
27268SOL     OW83810   6.578   8.887   6.080
27268SOL    HW183811   6.545   8.956   6.021
27268SOL    HW283812   6.580   8.932   6.165
27269SOL     OW83813   5.931   9.264   6.439
27269SOL    HW183814   5.984   9.183   6.454
27269SOL    HW283815   5.995   9.334   6.462
27270SOL     OW83816   7.384   8.539   6.473
27270SOL    HW183817   7.355   8.481   6.399
27270SOL    HW283818   7.319   8.515   6.541
27271SOL     OW83819   6.804   9.015   7.074
27271SOL    HW183820   6.783   8.949   7.144
27271SOL    HW283821   6.763   8.973   6.997
27272SOL     OW83822   5.888   8.407   5.845
27272SOL    HW183823   5.969   8.430   5.798
27272SOL    HW283824   5.867   8.320   5.809
27273SOL     OW83825   7.020   8.179   6.327
27273SOL    HW183826   7.031   8.142   6.416
27273SOL    HW283827   7.104   8.231   6.316
27274SOL     OW83828   6.049   8.713   7.305
27274SOL    HW183829   6.006   8.720   7.217
27274SOL    HW283830   5.972   8.728   7.363
27275SOL     OW83831   6.673   9.228   5.826
27275SOL    HW183832   6.608   9.170   5.870
27275SOL    HW283833   6.690   9.181   5.742
27276SOL     OW83834   5.757   7.734   7.086
27276SOL    HW183835   5.682   7.788   7.113
27276SOL    HW283836   5.739   7.650   7.131
27277SOL     OW83837   7.212   8.815   5.673
27277SOL    HW183838   7.164   8.898   5.655
27277SOL    HW283839   7.151   8.746   5.642
27278SOL     OW83840   6.043   9.188   5.901
27278SOL    HW183841   6.091   9.235   5.973
27278SOL    HW283842   6.115   9.154   5.846
27279SOL     OW83843   6.983   7.559   6.025
27279SOL    HW183844   6.978   7.515   5.938
27279SOL    HW283845   7.075   7.587   6.031
27280SOL     OW83846   5.827   9.237   6.811
27280SOL    HW183847   5.886   9.173   6.852
27280SOL    HW283848   5.814   9.202   6.722
27281SOL     OW83849   6.543   9.145   6.466
27281SOL    HW183850   6.630   9.102   6.467
27281SOL    HW283851   6.496   9.095   6.396
27282SOL     OW83852   5.977   8.142   6.054
27282SOL    HW183853   5.998   8.049   6.078
27282SOL    HW283854   5.881   8.142   6.070
27283SOL     OW83855   7.132   7.711   7.314
27283SOL    HW183856   7.127   7.709   7.413
27283SOL    HW283857   7.067   7.644   7.291
27284SOL     OW83858   6.222   7.570   5.679
27284SOL    HW183859   6.282   7.502   5.712
27284SOL    HW283860   6.171   7.520   5.612
27285SOL     OW83861   6.354   7.703   7.319
27285SOL    HW183862   6.434   7.648   7.333
27285SOL    HW283863   6.302   7.685   7.399
27286SOL     OW83864   6.472   8.980   6.780
27286SOL    HW183865   6.465   8.955   6.686
27286SOL    HW283866   6.540   8.920   6.814
27287SOL     OW83867   6.926   8.041   7.011
27287SOL    HW183868   6.962   8.008   7.096
27287SOL    HW283869   6.979   8.121   6.994
27288SOL     OW83870   6.411   8.852   6.521
27288SOL    HW183871   6.496   8.842   6.473
27288SOL    HW283872   6.348   8.864   6.447
27289SOL     OW83873   6.516   7.976   6.493
27289SOL    HW183874   6.492   7.964   6.398
27289SOL    HW283875   6.552   7.889   6.513
27290SOL     OW83876   6.139   7.500   6.088
27290SOL    HW183877   6.058   7.505   6.142
27290SOL    HW283878   6.128   7.579   6.030
27291SOL     OW83879   7.030   8.611   5.609
27291SOL    HW183880   7.064   8.538   5.664
27291SOL    HW283881   6.946   8.633   5.652
27292SOL     OW83882   5.861   7.500   5.783
27292SOL    HW183883   5.931   7.558   5.752
27292SOL    HW283884   5.911   7.424   5.819
27293SOL     OW83885   6.513   7.695   6.082
27293SOL    HW183886   6.489   7.736   5.998
27293SOL    HW283887   6.610   7.707   6.081
27294SOL     OW83888   6.675   8.127   7.057
27294SOL    HW183889   6.626   8.043   7.056
27294SOL    HW283890   6.768   8.100   7.043
27295SOL     OW83891   6.802   9.048   6.385
27295SOL    HW183892   6.810   9.099   6.302
27295SOL    HW283893   6.891   9.054   6.420
27296SOL     OW83894   6.062   8.618   6.331
27296SOL    HW183895   5.990   8.580   6.385
27296SOL    HW283896   6.030   8.597   6.240
27297SOL     OW83897   6.854   9.248   6.187
27297SOL    HW183898   6.903   9.312   6.130
27297SOL    HW283899   6.816   9.309   6.252
27298SOL     OW83900   6.645   7.994   5.603
27298SOL    HW183901   6.597   8.077   5.589
27298SOL    HW283902   6.715   8.019   5.665
27299SOL     OW83903   5.639   7.998   6.987
27299SOL    HW183904   5.733   7.994   6.963
27299SOL    HW283905   5.639   8.076   7.047
27300SOL     OW83906   6.152   7.675   6.750
27300SOL    HW183907   6.196   7.603   6.795
27300SOL    HW283908   6.060   7.665   6.779
27301SOL     OW83909   6.462   7.908   6.245
27301SOL    HW183910   6.419   7.960   6.176
27301SOL    HW283911   6.485   7.826   6.199
27302SOL     OW83912   6.609   7.521   6.356
27302SOL    HW183913   6.565   7.507   6.271
27302SOL    HW283914   6.587   7.438   6.404
27303SOL     OW83915   7.009   8.624   6.469
27303SOL    HW183916   6.966   8.539   6.486
27303SOL    HW283917   7.035   8.613   6.376
27304SOL     OW83918   7.032   8.029   6.582
27304SOL    HW183919   6.989   7.942   6.582
27304SOL    HW283920   7.107   8.018   6.643
27305SOL     OW83921   7.452   8.277   5.943
27305SOL    HW183922   7.465   8.247   6.034
27305SOL    HW283923   7.427   8.194   5.898
27306SOL     OW83924   6.076   8.879   5.707
27306SOL    HW183925   5.994   8.858   5.756
27306SOL    HW283926   6.070   8.821   5.630
27307SOL     OW83927   7.252   8.743   6.258
27307SOL    HW183928   7.348   8.742   6.242
27307SOL    HW283929   7.233   8.836   6.275
27308SOL     OW83930   6.987   8.044   5.647
27308SOL    HW183931   6.944   8.018   5.731
27308SOL    HW283932   7.075   8.007   5.659
27309SOL     OW83933   6.120   7.695   5.907
27309SOL    HW183934   6.164   7.665   5.826
27309SOL    HW283935   6.078   7.777   5.875
27310SOL     OW83936   7.312   8.678   7.160
27310SOL    HW183937   7.402   8.640   7.159
27310SOL    HW283938   7.333   8.771   7.179
27311SOL     OW83939   6.662   8.811   6.919
27311SOL    HW183940   6.585   8.776   6.966
27311SOL    HW283941   6.735   8.760   6.962
27312SOL     OW83942   7.190   9.054   7.223
27312SOL    HW183943   7.200   9.097   7.136
27312SOL    HW283944   7.271   9.000   7.227
27313SOL     OW83945   6.702   8.667   6.672
27313SOL    HW183946   6.647   8.706   6.741
27313SOL    HW283947   6.673   8.713   6.592
27314SOL     OW83948   7.185   8.542   6.674
27314SOL    HW183949   7.192   8.606   6.747
27314SOL    HW283950   7.137   8.595   6.608
27315SOL     OW83951   6.509   7.553   6.983
27315SOL    HW183952   6.544   7.529   6.895
27315SOL    HW283953   6.587   7.597   7.023
27316SOL     OW83954   6.593   8.563   7.327
27316SOL    HW183955   6.504   8.597   7.345
27316SOL    HW283956   6.576   8.489   7.267
27317SOL     OW83957   6.304   8.518   5.941
27317SOL    HW183958   6.290   8.497   6.034
27317SOL    HW283959   6.374   8.454   5.914
27318SOL     OW83960   5.991   8.263   6.856
27318SOL    HW183961   6.069   8.263   6.916
27318SOL    HW283962   5.961   8.172   6.864
27319SOL     OW83963   6.867   7.834   6.846
27319SOL    HW183964   6.891   7.911   6.902
27319SOL    HW283965   6.778   7.857   6.816
27320SOL     OW83966   5.660   9.015   6.920
27320SOL    HW183967   5.659   9.110   6.901
27320SOL    HW283968   5.755   8.995   6.917
27321SOL     OW83969   5.964   8.556   6.089
27321SOL    HW183970   5.988   8.616   6.018
27321SOL    HW283971   5.928   8.480   6.040
27322SOL     OW83972   6.125   7.986   6.428
27322SOL    HW183973   6.152   8.045   6.354
27322SOL    HW283974   6.191   8.007   6.495
27323SOL     OW83975   6.807   8.781   5.967
27323SOL    HW183976   6.851   8.858   6.007
27323SOL    HW283977   6.718   8.791   6.004
27324SOL     OW83978   6.885   8.919   6.753
27324SOL    HW183979   6.943   8.918   6.831
27324SOL    HW283980   6.815   8.856   6.777
27325SOL     OW83981   7.163   8.057   6.051
27325SOL    HW183982   7.135   8.120   6.120
27325SOL    HW283983   7.201   8.117   5.987
27326SOL     OW83984   5.922   8.950   6.899
27326SOL    HW183985   5.920   8.917   6.807
27326SOL    HW283986   6.017   8.971   6.906
27327SOL     OW83987   6.020   8.180   7.217
27327SOL    HW183988   6.071   8.223   7.146
27327SOL    HW283989   6.060   8.092   7.220
27328SOL     OW83990   7.208   8.221   7.270
27328SOL    HW183991   7.119   8.259   7.269
27328SOL    HW283992   7.251   8.269   7.197
27329SOL     OW83993   6.582   7.563   7.343
27329SOL    HW183994   6.637   7.638   7.320
27329SOL    HW283995   6.629   7.491   7.299
27330SOL     OW83996   6.094   7.454   7.343
27330SOL    HW183997   6.049   7.400   7.274
27330SOL    HW283998   6.034   7.530   7.347
27331SOL     OW83999   6.167   8.340   6.634
27331SOL    HW184000   6.200   8.431   6.633
27331SOL    HW284001   6.111   8.336   6.713
27332SOL     OW84002   6.943   8.302   6.612
27332SOL    HW184003   6.860   8.274   6.572
27332SOL    HW284004   6.991   8.218   6.616
27333SOL     OW84005   6.814   7.972   5.857
27333SOL    HW184006   6.812   7.892   5.913
27333SOL    HW284007   6.761   8.033   5.911
27334SOL     OW84008   5.869   7.653   6.832
27334SOL    HW184009   5.828   7.678   6.917
27334SOL    HW284010   5.848   7.557   6.828
27335SOL     OW84011   5.602   8.748   6.868
27335SOL    HW184012   5.641   8.687   6.933
27335SOL    HW284013   5.632   8.835   6.898
27336SOL     OW84014   6.304   8.093   6.635
27336SOL    HW184015   6.382   8.074   6.580
27336SOL    HW284016   6.279   8.185   6.614
27337SOL     OW84017   7.349   8.392   7.434
27337SOL    HW184018   7.306   8.334   7.370
27337SOL    HW284019   7.282   8.395   7.504
27338SOL     OW84020   5.901   7.511   6.202
27338SOL    HW184021   5.864   7.599   6.225
27338SOL    HW284022   5.899   7.465   6.288
27339SOL     OW84023   7.189   7.826   5.933
27339SOL    HW184024   7.222   7.758   5.994
27339SOL    HW284025   7.176   7.904   5.992
27340SOL     OW84026   6.653   8.200   6.553
27340SOL    HW184027   6.635   8.217   6.648
27340SOL    HW284028   6.615   8.111   6.543
27341SOL     OW84029   6.572   9.011   7.302
27341SOL    HW184030   6.553   9.061   7.219
27341SOL    HW284031   6.608   8.928   7.267
27342SOL     OW84032   7.434   8.942   7.192
27342SOL    HW184033   7.460   8.963   7.101
27342SOL    HW284034   7.513   8.970   7.242
27343SOL     OW84035   5.930   8.361   7.393
27343SOL    HW184036   6.013   8.390   7.434
27343SOL    HW284037   5.960   8.286   7.338
27344SOL     OW84038   7.101   7.703   5.716
27344SOL    HW184039   7.025   7.655   5.752
27344SOL    HW284040   7.138   7.748   5.794
27345SOL     OW84041   6.871   8.289   5.609
27345SOL    HW184042   6.912   8.201   5.620
27345SOL    HW284043   6.906   8.315   5.521
27346SOL     OW84044   6.650   8.815   6.424
27346SOL    HW184045   6.667   8.735   6.369
27346SOL    HW284046   6.723   8.875   6.401
27347SOL     OW84047   5.876   8.253   6.580
27347SOL    HW184048   5.969   8.272   6.559
27347SOL    HW284049   5.883   8.160   6.607
27348SOL     OW84050   5.924   7.982   6.598
27348SOL    HW184051   5.882   7.895   6.582
27348SOL    HW284052   5.991   7.984   6.526
27349SOL     OW84053   6.738   7.816   7.278
27349SOL    HW184054   6.692   7.867   7.347
27349SOL    HW284055   6.825   7.860   7.276
27350SOL     OW84056   6.754   7.650   7.057
27350SOL    HW184057   6.754   7.715   7.129
27350SOL    HW284058   6.795   7.699   6.984
27351SOL     OW84059   5.582   8.765   5.783
27351SOL    HW184060   5.490   8.780   5.751
27351SOL    HW284061   5.579   8.672   5.812
27352SOL     OW84062   5.679   9.223   6.531
27352SOL    HW184063   5.650   9.150   6.471
27352SOL    HW284064   5.769   9.241   6.496
27353SOL     OW84065   6.068   9.038   6.515
27353SOL    HW184066   6.134   9.108   6.531
27353SOL    HW284067   6.119   8.974   6.462
27354SOL     OW84068   6.564   8.218   6.817
27354SOL    HW184069   6.612   8.189   6.897
27354SOL    HW284070   6.475   8.186   6.835
27355SOL     OW84071   5.617   7.977   6.698
27355SOL    HW184072   5.688   7.956   6.637
27355SOL    HW284073   5.661   7.973   6.783
27356SOL     OW84074   5.808   7.964   7.304
27356SOL    HW184075   5.862   7.923   7.235
27356SOL    HW284076   5.760   8.033   7.255
27357SOL     OW84077   6.974   8.364   7.244
27357SOL    HW184078   6.996   8.459   7.243
27357SOL    HW284079   6.966   8.345   7.149
27358SOL     OW84080   6.382   8.019   5.968
27358SOL    HW184081   6.396   7.946   5.906
27358SOL    HW284082   6.309   8.067   5.927
27359SOL     OW84083   7.231   8.071   6.791
27359SOL    HW184084   7.206   8.002   6.854
27359SOL    HW284085   7.311   8.034   6.750
27360SOL     OW84086   5.841   8.989   7.307
27360SOL    HW184087   5.826   9.058   7.373
27360SOL    HW284088   5.841   8.908   7.361
27361SOL     OW84089   6.277   7.925   6.852
27361SOL    HW184090   6.232   7.847   6.816
27361SOL    HW284091   6.275   7.987   6.776
27362SOL     OW84092   6.500   9.146   7.077
27362SOL    HW184093   6.492   9.118   6.985
27362SOL    HW284094   6.508   9.243   7.067
27363SOL     OW84095   6.030   7.923   5.789
27363SOL    HW184096   6.094   7.996   5.793
27363SOL    HW284097   5.946   7.972   5.777
27364SOL     OW84098   5.694   8.572   7.051
27364SOL    HW184099   5.705   8.519   7.133
27364SOL    HW284100   5.718   8.506   6.982
27365SOL     OW84101   6.900   8.487   6.811
27365SOL    HW184102   6.926   8.430   6.737
27365SOL    HW284103   6.838   8.548   6.768
27366SOL     OW84104   6.901   8.298   5.879
27366SOL    HW184105   6.819   8.270   5.921
27366SOL    HW284106   6.876   8.303   5.785
27367SOL     OW84107   7.334   9.196   6.711
27367SOL    HW184108   7.409   9.217   6.651
27367SOL    HW284109   7.324   9.099   6.694
27368SOL     OW84110   6.831   9.175   6.698
27368SOL    HW184111   6.913   9.204   6.658
27368SOL    HW284112   6.845   9.078   6.707
27369SOL     OW84113   5.690   8.698   6.613
27369SOL    HW184114   5.651   8.716   6.701
27369SOL    HW284115   5.619   8.648   6.569
27370SOL     OW84116   6.284   9.096   7.318
27370SOL    HW184117   6.243   9.184   7.315
27370SOL    HW284118   6.371   9.110   7.277
27371SOL     OW84119   7.268   7.608   6.078
27371SOL    HW184120   7.335   7.587   6.010
27371SOL    HW284121   7.268   7.529   6.134
27372SOL     OW84122   6.941   9.015   6.065
27372SOL    HW184123   7.010   9.030   5.998
27372SOL    HW284124   6.910   9.105   6.086
27373SOL     OW84125   5.739   9.229   7.413
27373SOL    HW184126   5.691   9.164   7.469
27373SOL    HW284127   5.784   9.280   7.483
27374SOL     OW84128   6.834   8.372   6.254
27374SOL    HW184129   6.913   8.316   6.272
27374SOL    HW284130   6.875   8.447   6.207
27375SOL     OW84131   6.380   8.697   7.017
27375SOL    HW184132   6.359   8.752   7.095
27375SOL    HW284133   6.304   8.716   6.960
27376SOL     OW84134   6.259   9.068   5.746
27376SOL    HW184135   6.277   9.079   5.651
27376SOL    HW284136   6.196   8.993   5.743
27377SOL     OW84137   7.215   9.169   6.975
27377SOL    HW184138   7.254   9.182   6.887
27377SOL    HW284139   7.202   9.260   7.006
27378SOL     OW84140   7.430   7.607   6.557
27378SOL    HW184141   7.445   7.519   6.520
27378SOL    HW284142   7.344   7.634   6.518
27379SOL     OW84143   5.825   7.766   6.292
27379SOL    HW184144   5.732   7.779   6.265
27379SOL    HW284145   5.820   7.777   6.389
27380SOL     OW84146   6.769   9.080   5.612
27380SOL    HW184147   6.776   8.984   5.629
27380SOL    HW284148   6.714   9.083   5.532
27381SOL     OW84149   6.405   8.439   6.963
27381SOL    HW184150   6.449   8.447   6.877
27381SOL    HW284151   6.399   8.533   6.992
27382SOL     OW84152   6.490   8.353   5.858
27382SOL    HW184153   6.565   8.396   5.812
27382SOL    HW284154   6.532   8.278   5.902
27383SOL     OW84155   7.132   9.083   5.623
27383SOL    HW184156   7.037   9.091   5.615
27383SOL    HW284157   7.160   9.079   5.529
27384SOL     OW84158   5.924   8.724   7.073
27384SOL    HW184159   5.912   8.800   7.014
27384SOL    HW284160   5.844   8.670   7.059
27385SOL     OW84161   7.187   8.749   6.857
27385SOL    HW184162   7.236   8.729   6.937
27385SOL    HW284163   7.129   8.823   6.887
27386SOL     OW84164   6.634   8.564   6.311
27386SOL    HW184165   6.561   8.510   6.345
27386SOL    HW284166   6.700   8.496   6.288
27387SOL     OW84167   6.616   7.676   6.575
27387SOL    HW184168   6.607   7.635   6.486
27387SOL    HW284169   6.617   7.597   6.632
27388SOL     OW84170   6.199   8.922   6.085
27388SOL    HW184171   6.251   8.889   6.010
27388SOL    HW284172   6.129   8.971   6.042
27389SOL     OW84173   7.295   7.822   6.966
27389SOL    HW184174   7.357   7.896   6.959
27389SOL    HW284175   7.338   7.755   6.909
27390SOL     OW84176   5.827   8.826   5.857
27390SOL    HW184177   5.731   8.806   5.851
27390SOL    HW284178   5.836   8.853   5.951
27391SOL     OW84179   5.703   8.441   7.284
27391SOL    HW184180   5.635   8.439   7.354
27391SOL    HW284181   5.785   8.420   7.334
27392SOL     OW84182   6.256   7.635   7.072
27392SOL    HW184183   6.343   7.604   7.040
27392SOL    HW284184   6.280   7.671   7.159
27393SOL     OW84185   5.671   7.789   5.623
27393SOL    HW184186   5.581   7.783   5.590
27393SOL    HW284187   5.705   7.866   5.575
27394SOL     OW84188   7.037   8.309   6.975
27394SOL    HW184189   6.982   8.364   6.916
27394SOL    HW284190   7.127   8.333   6.946
27395SOL     OW84191   5.636   7.623   5.893
27395SOL    HW184192   5.630   7.702   5.838
27395SOL    HW284193   5.720   7.583   5.861
27396SOL     OW84194   6.790   8.808   5.694
27396SOL    HW184195   6.712   8.751   5.704
27396SOL    HW284196   6.821   8.810   5.787
27397SOL     OW84197   6.198   8.263   7.023
27397SOL    HW184198   6.256   8.340   7.013
27397SOL    HW284199   6.267   8.194   7.033
27398SOL     OW84200   7.090   9.231   6.557
27398SOL    HW184201   7.124   9.253   6.470
27398SOL    HW284202   7.171   9.209   6.606
27399SOL     OW84203   6.318   7.978   7.285
27399SOL    HW184204   6.355   8.043   7.347
27399SOL    HW284205   6.334   7.891   7.326
27400SOL     OW84206   7.049   8.630   7.219
27400SOL    HW184207   7.046   8.639   7.316
27400SOL    HW284208   7.144   8.646   7.200
27401SOL     OW84209   5.963   9.187   7.143
27401SOL    HW184210   5.880   9.237   7.132
27401SOL    HW284211   5.932   9.104   7.183
27402SOL     OW84212   7.287   8.337   6.838
27402SOL    HW184213   7.269   8.246   6.805
27402SOL    HW284214   7.248   8.393   6.768
27403SOL     OW84215   6.778   7.750   6.050
27403SOL    HW184216   6.853   7.688   6.047
27403SOL    HW284217   6.803   7.807   6.126
27404SOL     OW84218   6.185   8.189   6.240
27404SOL    HW184219   6.212   8.282   6.232
27404SOL    HW284220   6.115   8.182   6.172
27405SOL     OW84221   7.359   7.829   7.223
27405SOL    HW184222   7.331   7.834   7.129
27405SOL    HW284223   7.283   7.782   7.263
27406SOL     OW84224   7.330   8.387   7.101
27406SOL    HW184225   7.322   8.483   7.096
27406SOL    HW284226   7.337   8.362   7.007
27407SOL     OW84227   6.442   8.809   5.617
27407SOL    HW184228   6.418   8.827   5.709
27407SOL    HW284229   6.468   8.895   5.582
27408SOL     OW84230   6.227   9.247   6.506
27408SOL    HW184231   6.216   9.342   6.490
27408SOL    HW284232   6.322   9.234   6.505
27409SOL     OW84233   6.457   8.385   6.430
27409SOL    HW184234   6.516   8.318   6.468
27409SOL    HW284235   6.438   8.443   6.505
27410SOL     OW84236   6.685   8.457   5.689
27410SOL    HW184237   6.652   8.502   5.610
27410SOL    HW284238   6.749   8.394   5.650
27411SOL     OW84239   7.451   9.009   6.414
27411SOL    HW184240   7.356   9.003   6.404
27411SOL    HW284241   7.472   8.931   6.467
27412SOL     OW84242   5.832   8.764   7.454
27412SOL    HW184243   5.756   8.708   7.437
27412SOL    HW284244   5.826   8.776   7.550
27413SOL     OW84245   5.674   8.701   6.237
27413SOL    HW184246   5.694   8.648   6.315
27413SOL    HW284247   5.749   8.680   6.179
27414SOL     OW84248   6.265   8.852   7.206
27414SOL    HW184249   6.188   8.804   7.240
27414SOL    HW284250   6.254   8.941   7.246
27415SOL     OW84251   7.403   7.623   6.819
27415SOL    HW184252   7.414   7.528   6.829
27415SOL    HW284253   7.414   7.632   6.722
27416SOL     OW84254   6.030   7.882   6.124
27416SOL    HW184255   6.074   7.813   6.073
27416SOL    HW284256   5.980   7.832   6.192
27417SOL     OW84257   7.292   8.940   6.672
27417SOL    HW184258   7.210   8.908   6.630
27417SOL    HW284259   7.300   8.879   6.746
27418SOL     OW84260   5.908   7.993   6.874
27418SOL    HW184261   5.981   7.948   6.919
27418SOL    HW284262   5.923   7.972   6.780
27419SOL     OW84263   6.409   9.036   6.259
27419SOL    HW184264   6.402   9.074   6.171
27419SOL    HW284265   6.323   8.992   6.270
27420SOL     OW84266   7.024   7.698   6.685
27420SOL    HW184267   7.043   7.613   6.727
27420SOL    HW284268   6.971   7.744   6.754
27421SOL     OW84269   6.614   7.454   6.744
27421SOL    HW184270   6.556   7.379   6.725
27421SOL    HW284271   6.703   7.412   6.736
27422SOL     OW84272   6.378   8.789   5.896
27422SOL    HW184273   6.347   8.697   5.898
27422SOL    HW284274   6.448   8.787   5.962
27423SOL     OW84275   6.184   8.995   6.853
27423SOL    HW184276   6.178   9.084   6.894
27423SOL    HW284277   6.278   8.996   6.828
27424SOL     OW84278   6.900   7.469   5.773
27424SOL    HW184279   6.916   7.412   5.697
27424SOL    HW284280   6.810   7.439   5.799
27425SOL     OW84281   6.853   7.904   6.249
27425SOL    HW184282   6.810   7.991   6.252
27425SOL    HW284283   6.853   7.878   6.343
27426SOL     OW84284   7.184   7.656   6.451
27426SOL    HW184285   7.115   7.671   6.517
27426SOL    HW284286   7.186   7.740   6.402
27427SOL     OW84287   5.625   8.511   5.890
27427SOL    HW184288   5.717   8.501   5.860
27427SOL    HW284289   5.606   8.419   5.920
27428SOL     OW84290   6.463   9.092   5.924
27428SOL    HW184291   6.389   9.078   5.863
27428SOL    HW284292   6.443   9.177   5.968
27429SOL     OW84293   5.825   8.087   7.584
27429SOL    HW184294   5.733   8.076   7.612
27429SOL    HW284295   5.823   8.066   7.489
27430SOL     OW84296   5.823   7.737   8.452
27430SOL    HW184297   5.839   7.705   8.543
27430SOL    HW284298   5.740   7.692   8.430
27431SOL     OW84299   5.592   7.848   8.069
27431SOL    HW184300   5.511   7.867   8.120
27431SOL    HW284301   5.569   7.764   8.027
27432SOL     OW84302   6.158   8.735   8.637
27432SOL    HW184303   6.069   8.733   8.601
27432SOL    HW284304   6.167   8.828   8.665
27433SOL     OW84305   7.126   8.979   8.159
27433SOL    HW184306   7.080   8.961   8.243
27433SOL    HW284307   7.053   8.980   8.092
27434SOL     OW84308   6.709   8.131   8.156
27434SOL    HW184309   6.745   8.216   8.125
27434SOL    HW284310   6.676   8.154   8.244
27435SOL     OW84311   7.354   8.055   7.687
27435SOL    HW184312   7.341   8.054   7.590
27435SOL    HW284313   7.308   7.973   7.712
27436SOL     OW84314   6.326   8.602   8.461
27436SOL    HW184315   6.268   8.644   8.528
27436SOL    HW284316   6.365   8.681   8.421
27437SOL     OW84317   6.462   8.195   9.250
27437SOL    HW184318   6.443   8.256   9.322
27437SOL    HW284319   6.486   8.254   9.176
27438SOL     OW84320   6.276   8.479   8.100
27438SOL    HW184321   6.327   8.449   8.177
27438SOL    HW284322   6.205   8.532   8.140
27439SOL     OW84323   6.294   8.602   9.250
27439SOL    HW184324   6.336   8.685   9.280
27439SOL    HW284325   6.211   8.634   9.212
27440SOL     OW84326   5.907   8.877   8.515
27440SOL    HW184327   5.834   8.836   8.466
27440SOL    HW284328   5.958   8.926   8.447
27441SOL     OW84329   7.054   8.951   8.825
27441SOL    HW184330   7.106   9.033   8.837
27441SOL    HW284331   6.991   8.956   8.899
27442SOL     OW84332   6.015   7.839   8.971
27442SOL    HW184333   6.084   7.770   8.968
27442SOL    HW284334   5.933   7.788   8.958
27443SOL     OW84335   7.203   7.896   8.187
27443SOL    HW184336   7.145   7.934   8.119
27443SOL    HW284337   7.220   7.972   8.243
27444SOL     OW84338   5.854   9.140   7.956
27444SOL    HW184339   5.863   9.231   7.991
27444SOL    HW284340   5.859   9.156   7.861
27445SOL     OW84341   6.716   8.794   9.115
27445SOL    HW184342   6.754   8.796   9.204
27445SOL    HW284343   6.669   8.709   9.118
27446SOL     OW84344   5.825   8.878   7.978
27446SOL    HW184345   5.838   8.976   7.980
27446SOL    HW284346   5.752   8.867   8.040
27447SOL     OW84347   5.858   8.537   8.354
27447SOL    HW184348   5.845   8.464   8.416
27447SOL    HW284349   5.801   8.606   8.394
27448SOL     OW84350   6.194   9.226   8.864
27448SOL    HW184351   6.116   9.212   8.920
27448SOL    HW284352   6.221   9.317   8.888
27449SOL     OW84353   6.155   8.440   7.561
27449SOL    HW184354   6.207   8.488   7.493
27449SOL    HW284355   6.199   8.472   7.642
27450SOL     OW84356   7.201   7.558   8.943
27450SOL    HW184357   7.240   7.620   8.879
27450SOL    HW284358   7.203   7.608   9.026
27451SOL     OW84359   5.712   8.098   8.009
27451SOL    HW184360   5.674   8.010   8.023
27451SOL    HW284361   5.701   8.141   8.096
27452SOL     OW84362   7.434   9.181   7.792
27452SOL    HW184363   7.507   9.163   7.855
27452SOL    HW284364   7.450   9.274   7.771
27453SOL     OW84365   5.627   9.051   7.570
27453SOL    HW184366   5.626   8.957   7.594
27453SOL    HW284367   5.605   9.095   7.654
27454SOL     OW84368   7.268   8.372   8.110
27454SOL    HW184369   7.340   8.330   8.061
27454SOL    HW284370   7.236   8.435   8.043
27455SOL     OW84371   7.240   8.563   7.897
27455SOL    HW184372   7.329   8.563   7.857
27455SOL    HW284373   7.244   8.638   7.960
27456SOL     OW84374   5.697   8.189   9.026
27456SOL    HW184375   5.782   8.223   9.057
27456SOL    HW284376   5.641   8.268   9.028
27457SOL     OW84377   6.189   8.853   8.211
27457SOL    HW184378   6.142   8.768   8.219
27457SOL    HW284379   6.182   8.869   8.116
27458SOL     OW84380   6.878   8.690   8.869
27458SOL    HW184381   6.910   8.612   8.819
27458SOL    HW284382   6.922   8.676   8.955
27459SOL     OW84383   6.414   7.453   7.941
27459SOL    HW184384   6.448   7.544   7.939
27459SOL    HW284385   6.318   7.467   7.947
27460SOL     OW84386   5.760   8.430   8.707
27460SOL    HW184387   5.851   8.403   8.688
27460SOL    HW284388   5.707   8.366   8.659
27461SOL     OW84389   7.144   8.397   7.619
27461SOL    HW184390   7.064   8.349   7.647
27461SOL    HW284391   7.176   8.431   7.703
27462SOL     OW84392   6.759   9.255   9.069
27462SOL    HW184393   6.776   9.317   8.997
27462SOL    HW284394   6.785   9.170   9.027
27463SOL     OW84395   5.906   7.681   9.256
27463SOL    HW184396   5.973   7.751   9.249
27463SOL    HW284397   5.834   7.728   9.301
27464SOL     OW84398   7.069   8.869   8.425
27464SOL    HW184399   6.995   8.891   8.486
27464SOL    HW284400   7.034   8.789   8.381
27465SOL     OW84401   7.258   9.175   8.052
27465SOL    HW184402   7.241   9.144   7.962
27465SOL    HW284403   7.214   9.104   8.104
27466SOL     OW84404   6.180   8.162   7.709
27466SOL    HW184405   6.176   8.249   7.667
27466SOL    HW284406   6.107   8.166   7.774
27467SOL     OW84407   6.846   7.821   8.397
27467SOL    HW184408   6.761   7.774   8.403
27467SOL    HW284409   6.907   7.761   8.444
27468SOL     OW84410   7.160   9.095   7.754
27468SOL    HW184411   7.255   9.109   7.758
27468SOL    HW284412   7.147   9.091   7.658
27469SOL     OW84413   6.390   8.088   8.900
27469SOL    HW184414   6.374   8.055   8.991
27469SOL    HW284415   6.348   8.018   8.848
27470SOL     OW84416   6.984   7.924   9.122
27470SOL    HW184417   6.993   7.985   9.198
27470SOL    HW284418   7.045   7.852   9.148
27471SOL     OW84419   6.548   8.332   9.027
27471SOL    HW184420   6.592   8.253   8.990
27471SOL    HW284421   6.504   8.367   8.948
27472SOL     OW84422   6.532   7.828   8.701
27472SOL    HW184423   6.442   7.864   8.708
27472SOL    HW284424   6.527   7.772   8.623
27473SOL     OW84425   6.623   8.124   7.863
27473SOL    HW184426   6.637   8.146   7.957
27473SOL    HW284427   6.535   8.081   7.866
27474SOL     OW84428   5.695   8.247   8.237
27474SOL    HW184429   5.766   8.263   8.301
27474SOL    HW284430   5.632   8.318   8.259
27475SOL     OW84431   5.693   9.298   9.018
27475SOL    HW184432   5.704   9.272   9.112
27475SOL    HW284433   5.597   9.296   9.007
27476SOL     OW84434   6.476   7.843   7.655
27476SOL    HW184435   6.518   7.894   7.584
27476SOL    HW284436   6.494   7.753   7.625
27477SOL     OW84437   7.300   8.031   9.286
27477SOL    HW184438   7.266   8.107   9.234
27477SOL    HW284439   7.339   7.977   9.216
27478SOL     OW84440   6.942   8.592   8.006
27478SOL    HW184441   7.023   8.581   7.955
27478SOL    HW284442   6.893   8.655   7.950
27479SOL     OW84443   6.132   7.632   8.340
27479SOL    HW184444   6.140   7.657   8.434
27479SOL    HW284445   6.128   7.717   8.294
27480SOL     OW84446   6.588   8.908   7.931
27480SOL    HW184447   6.544   8.969   7.868
27480SOL    HW284448   6.569   8.948   8.016
27481SOL     OW84449   5.929   9.260   8.309
27481SOL    HW184450   5.982   9.179   8.313
27481SOL    HW284451   5.997   9.328   8.319
27482SOL     OW84452   7.404   8.511   8.336
27482SOL    HW184453   7.357   8.488   8.254
27482SOL    HW284454   7.338   8.489   8.404
27483SOL     OW84455   6.807   9.014   8.952
27483SOL    HW184456   6.782   8.943   9.015
27483SOL    HW284457   6.756   8.990   8.874
27484SOL     OW84458   5.895   8.401   7.707
27484SOL    HW184459   5.965   8.434   7.649
27484SOL    HW284460   5.862   8.325   7.656
27485SOL     OW84461   7.061   8.203   8.170
27485SOL    HW184462   7.064   8.176   8.262
27485SOL    HW284463   7.140   8.259   8.162
27486SOL     OW84464   6.053   8.717   9.168
27486SOL    HW184465   6.007   8.729   9.082
27486SOL    HW284466   5.977   8.717   9.229
27487SOL     OW84467   6.684   9.231   7.699
27487SOL    HW184468   6.622   9.173   7.745
27487SOL    HW284469   6.688   9.190   7.611
27488SOL     OW84470   5.760   7.735   8.943
27488SOL    HW184471   5.685   7.793   8.958
27488SOL    HW284472   5.739   7.658   8.998
27489SOL     OW84473   7.209   8.815   7.537
27489SOL    HW184474   7.166   8.899   7.514
27489SOL    HW284475   7.143   8.748   7.508
27490SOL     OW84476   6.047   9.193   7.751
27490SOL    HW184477   6.086   9.234   7.830
27490SOL    HW284478   6.124   9.164   7.700
27491SOL     OW84479   6.998   7.538   7.878
27491SOL    HW184480   6.993   7.499   7.789
27491SOL    HW284481   7.092   7.560   7.888
27492SOL     OW84482   5.828   9.239   8.671
27492SOL    HW184483   5.887   9.173   8.709
27492SOL    HW284484   5.809   9.204   8.582
27493SOL     OW84485   6.554   9.145   8.332
27493SOL    HW184486   6.633   9.092   8.344
27493SOL    HW284487   6.504   9.094   8.265
27494SOL     OW84488   5.986   8.124   7.917
27494SOL    HW184489   6.004   8.030   7.938
27494SOL    HW284490   5.891   8.131   7.940
27495SOL     OW84491   7.128   7.706   9.183
27495SOL    HW184492   7.127   7.718   9.281
27495SOL    HW284493   7.087   7.619   9.177
27496SOL     OW84494   6.215   7.581   7.545
27496SOL    HW184495   6.286   7.522   7.571
27496SOL    HW284496   6.168   7.527   7.478
27497SOL     OW84497   6.354   7.719   9.174
27497SOL    HW184498   6.435   7.664   9.185
27497SOL    HW284499   6.305   7.698   9.255
27498SOL     OW84500   6.475   8.989   8.646
27498SOL    HW184501   6.471   8.962   8.553
27498SOL    HW284502   6.539   8.927   8.685
27499SOL     OW84503   6.919   8.043   8.875
27499SOL    HW184504   6.963   8.018   8.959
27499SOL    HW284505   6.966   8.125   8.852
27500SOL     OW84506   6.413   8.853   8.379
27500SOL    HW184507   6.496   8.842   8.328
27500SOL    HW284508   6.345   8.861   8.310
27501SOL     OW84509   6.519   7.972   8.360
27501SOL    HW184510   6.498   7.961   8.264
27501SOL    HW284511   6.538   7.880   8.382
27502SOL     OW84512   6.139   7.500   7.947
27502SOL    HW184513   6.063   7.510   8.006
27502SOL    HW284514   6.129   7.579   7.889
27503SOL     OW84515   7.035   8.624   7.479
27503SOL    HW184516   7.063   8.544   7.528
27503SOL    HW284517   6.944   8.638   7.509
27504SOL     OW84518   5.865   7.501   7.649
27504SOL    HW184519   5.923   7.570   7.614
27504SOL    HW284520   5.929   7.436   7.684
27505SOL     OW84521   6.518   7.703   7.937
27505SOL    HW184522   6.498   7.750   7.855
27505SOL    HW284523   6.615   7.715   7.942
27506SOL     OW84524   6.672   8.134   8.903
27506SOL    HW184525   6.618   8.054   8.916
27506SOL    HW284526   6.764   8.102   8.903
27507SOL     OW84527   6.826   9.019   8.225
27507SOL    HW184528   6.811   9.078   8.149
27507SOL    HW284529   6.884   9.072   8.281
27508SOL     OW84530   6.058   8.611   8.189
27508SOL    HW184531   5.985   8.581   8.247
27508SOL    HW284532   6.020   8.593   8.100
27509SOL     OW84533   6.848   9.252   8.045
27509SOL    HW184534   6.900   9.308   7.983
27509SOL    HW284535   6.814   9.319   8.105
27510SOL     OW84536   6.643   7.981   7.474
27510SOL    HW184537   6.597   8.064   7.452
27510SOL    HW284538   6.712   8.008   7.537
27511SOL     OW84539   5.652   7.995   8.850
27511SOL    HW184540   5.746   7.981   8.833
27511SOL    HW284541   5.654   8.076   8.905
27512SOL     OW84542   6.157   7.676   8.618
27512SOL    HW184543   6.197   7.594   8.648
27512SOL    HW284544   6.064   7.664   8.646
27513SOL     OW84545   6.459   7.919   8.109
27513SOL    HW184546   6.419   7.960   8.031
27513SOL    HW284547   6.475   7.829   8.076
27514SOL     OW84548   6.568   7.538   8.219
27514SOL    HW184549   6.548   7.513   8.127
27514SOL    HW284550   6.569   7.452   8.264
27515SOL     OW84551   7.003   8.633   8.326
27515SOL    HW184552   6.933   8.567   8.341
27515SOL    HW284553   7.012   8.629   8.230
27516SOL     OW84554   7.036   8.039   8.460
27516SOL    HW184555   7.000   7.953   8.436
27516SOL    HW284556   7.106   8.017   8.524
27517SOL     OW84557   7.419   8.271   7.850
27517SOL    HW184558   7.481   8.216   7.902
27517SOL    HW284559   7.400   8.211   7.777
27518SOL     OW84560   6.079   8.868   7.577
27518SOL    HW184561   5.998   8.858   7.629
27518SOL    HW284562   6.063   8.809   7.502
27519SOL     OW84563   7.258   8.739   8.110
27519SOL    HW184564   7.355   8.744   8.111
27519SOL    HW284565   7.228   8.830   8.129
27520SOL     OW84566   6.985   8.036   7.513
27520SOL    HW184567   6.936   8.012   7.594
27520SOL    HW284568   7.067   7.986   7.526
27521SOL     OW84569   6.113   7.699   7.777
27521SOL    HW184570   6.157   7.662   7.699
27521SOL    HW284571   6.078   7.782   7.738
27522SOL     OW84572   7.316   8.677   9.027
27522SOL    HW184573   7.404   8.637   9.031
27522SOL    HW284574   7.338   8.770   9.041
27523SOL     OW84575   6.656   8.802   8.773
27523SOL    HW184576   6.584   8.763   8.825
27523SOL    HW284577   6.735   8.766   8.820
27524SOL     OW84578   7.194   9.051   9.081
27524SOL    HW184579   7.202   9.087   8.991
27524SOL    HW284580   7.276   8.999   9.088
27525SOL     OW84581   6.702   8.670   8.536
27525SOL    HW184582   6.655   8.709   8.611
27525SOL    HW284583   6.673   8.724   8.461
27526SOL     OW84584   7.188   8.548   8.525
27526SOL    HW184585   7.184   8.602   8.606
27526SOL    HW284586   7.122   8.591   8.468
27527SOL     OW84587   6.462   7.542   8.839
27527SOL    HW184588   6.507   7.515   8.756
27527SOL    HW284589   6.534   7.546   8.903
27528SOL     OW84590   6.578   8.562   9.189
27528SOL    HW184591   6.486   8.585   9.209
27528SOL    HW284592   6.569   8.486   9.129
27529SOL     OW84593   6.307   8.513   7.783
27529SOL    HW184594   6.285   8.482   7.872
27529SOL    HW284595   6.382   8.455   7.758
27530SOL     OW84596   6.017   8.250   8.692
27530SOL    HW184597   6.077   8.254   8.769
27530SOL    HW284598   5.960   8.174   8.714
27531SOL     OW84599   6.859   7.823   8.739
27531SOL    HW184600   6.893   7.909   8.775
27531SOL    HW284601   6.799   7.853   8.669
27532SOL     OW84602   5.662   9.021   8.783
27532SOL    HW184603   5.661   9.115   8.762
27532SOL    HW284604   5.757   9.000   8.784
27533SOL     OW84605   5.952   8.540   7.952
27533SOL    HW184606   5.959   8.610   7.887
27533SOL    HW284607   5.933   8.463   7.896
27534SOL     OW84608   6.149   8.005   8.311
27534SOL    HW184609   6.171   8.027   8.219
27534SOL    HW284610   6.127   8.093   8.345
27535SOL     OW84611   6.811   8.778   7.844
27535SOL    HW184612   6.860   8.855   7.877
27535SOL    HW284613   6.720   8.804   7.865
27536SOL     OW84614   6.887   8.915   8.620
27536SOL    HW184615   6.942   8.916   8.701
27536SOL    HW284616   6.816   8.853   8.643
27537SOL     OW84617   7.175   8.054   7.929
27537SOL    HW184618   7.120   8.117   7.979
27537SOL    HW284619   7.211   8.110   7.858
27538SOL     OW84620   5.925   8.952   8.765
27538SOL    HW184621   5.916   8.922   8.672
27538SOL    HW284622   6.021   8.974   8.767
27539SOL     OW84623   6.025   8.174   9.079
27539SOL    HW184624   6.073   8.220   9.008
27539SOL    HW284625   6.059   8.084   9.070
27540SOL     OW84626   7.210   8.220   9.129
27540SOL    HW184627   7.126   8.267   9.133
27540SOL    HW284628   7.253   8.264   9.053
27541SOL     OW84629   6.576   7.565   9.184
27541SOL    HW184630   6.651   7.616   9.219
27541SOL    HW284631   6.623   7.495   9.136
27542SOL     OW84632   6.083   7.464   9.203
27542SOL    HW184633   6.043   7.406   9.135
27542SOL    HW284634   6.016   7.535   9.208
27543SOL     OW84635   6.211   8.305   8.505
27543SOL    HW184636   6.212   8.401   8.493
27543SOL    HW284637   6.138   8.294   8.569
27544SOL     OW84638   6.932   8.298   8.481
27544SOL    HW184639   6.856   8.274   8.426
27544SOL    HW284640   6.978   8.213   8.489
27545SOL     OW84641   6.809   7.974   7.722
27545SOL    HW184642   6.812   7.896   7.780
27545SOL    HW284643   6.744   8.030   7.769
27546SOL     OW84644   5.896   7.643   8.700
27546SOL    HW184645   5.847   7.668   8.780
27546SOL    HW284646   5.867   7.550   8.688
27547SOL     OW84647   5.611   8.753   8.730
27547SOL    HW184648   5.638   8.700   8.807
27547SOL    HW284649   5.629   8.845   8.759
27548SOL     OW84650   7.353   8.407   9.296
27548SOL    HW184651   7.301   8.352   9.235
27548SOL    HW284652   7.294   8.411   9.373
27549SOL     OW84653   5.883   7.514   8.057
27549SOL    HW184654   5.860   7.605   8.083
27549SOL    HW284655   5.891   7.470   8.144
27550SOL     OW84656   7.189   7.827   7.793
27550SOL    HW184657   7.218   7.754   7.851
27550SOL    HW284658   7.180   7.901   7.856
27551SOL     OW84659   6.647   8.208   8.422
27551SOL    HW184660   6.636   8.221   8.518
27551SOL    HW284661   6.645   8.111   8.417
27552SOL     OW84662   6.563   9.011   9.151
27552SOL    HW184663   6.554   9.064   9.069
27552SOL    HW284664   6.594   8.925   9.118
27553SOL     OW84665   7.438   8.940   9.050
27553SOL    HW184666   7.466   8.969   8.962
27553SOL    HW284667   7.513   8.967   9.105
27554SOL     OW84668   5.929   8.335   9.265
27554SOL    HW184669   6.013   8.371   9.298
27554SOL    HW284670   5.961   8.266   9.202
27555SOL     OW84671   7.088   7.700   7.577
27555SOL    HW184672   7.018   7.645   7.614
27555SOL    HW284673   7.128   7.743   7.657
27556SOL     OW84674   6.881   8.282   7.483
27556SOL    HW184675   6.919   8.192   7.490
27556SOL    HW284676   6.908   8.307   7.393
27557SOL     OW84677   6.662   8.815   8.293
27557SOL    HW184678   6.674   8.737   8.235
27557SOL    HW284679   6.726   8.880   8.259
27558SOL     OW84680   5.870   8.269   8.448
27558SOL    HW184681   5.958   8.286   8.413
27558SOL    HW284682   5.875   8.174   8.470
27559SOL     OW84683   5.915   7.989   8.447
27559SOL    HW184684   5.881   7.897   8.443
27559SOL    HW284685   5.983   7.986   8.377
27560SOL     OW84686   6.750   7.803   9.154
27560SOL    HW184687   6.697   7.859   9.214
27560SOL    HW284688   6.839   7.838   9.171
27561SOL     OW84689   5.600   8.775   7.640
27561SOL    HW184690   5.509   8.796   7.610
27561SOL    HW284691   5.590   8.683   7.672
27562SOL     OW84692   5.682   9.231   8.395
27562SOL    HW184693   5.654   9.159   8.334
27562SOL    HW284694   5.773   9.250   8.362
27563SOL     OW84695   6.075   9.031   8.375
27563SOL    HW184696   6.139   9.103   8.393
27563SOL    HW284697   6.127   8.971   8.319
27564SOL     OW84698   6.530   8.200   8.671
27564SOL    HW184699   6.590   8.171   8.743
27564SOL    HW284700   6.464   8.247   8.723
27565SOL     OW84701   5.605   7.964   8.559
27565SOL    HW184702   5.682   7.956   8.501
27565SOL    HW284703   5.645   7.990   8.642
27566SOL     OW84704   5.792   7.967   9.165
27566SOL    HW184705   5.843   7.918   9.099
27566SOL    HW284706   5.752   8.038   9.111
27567SOL     OW84707   6.974   8.374   9.103
27567SOL    HW184708   7.000   8.468   9.095
27567SOL    HW284709   6.965   8.347   9.010
27568SOL     OW84710   6.378   8.016   7.848
27568SOL    HW184711   6.402   7.955   7.775
27568SOL    HW284712   6.307   8.068   7.806
27569SOL     OW84713   7.227   8.065   8.659
27569SOL    HW184714   7.216   7.995   8.725
27569SOL    HW284715   7.309   8.037   8.615
27570SOL     OW84716   5.833   8.991   9.173
27570SOL    HW184717   5.822   9.060   9.239
27570SOL    HW284718   5.843   8.910   9.227
27571SOL     OW84719   6.273   7.921   8.711
27571SOL    HW184720   6.226   7.837   8.696
27571SOL    HW284721   6.234   7.979   8.644
27572SOL     OW84722   6.514   9.139   8.924
27572SOL    HW184723   6.483   9.104   8.839
27572SOL    HW284724   6.508   9.236   8.911
27573SOL     OW84725   6.035   7.924   7.657
27573SOL    HW184726   6.101   7.995   7.653
27573SOL    HW284727   5.953   7.973   7.639
27574SOL     OW84728   5.686   8.579   8.922
27574SOL    HW184729   5.698   8.524   9.003
27574SOL    HW284730   5.712   8.518   8.850
27575SOL     OW84731   6.913   8.486   8.690
27575SOL    HW184732   6.926   8.426   8.614
27575SOL    HW284733   6.852   8.551   8.652
27576SOL     OW84734   6.902   8.304   7.748
27576SOL    HW184735   6.820   8.273   7.789
27576SOL    HW284736   6.881   8.303   7.653
27577SOL     OW84737   7.341   9.182   8.566
27577SOL    HW184738   7.424   9.229   8.551
27577SOL    HW284739   7.339   9.129   8.485
27578SOL     OW84740   6.832   9.171   8.561
27578SOL    HW184741   6.922   9.180   8.528
27578SOL    HW284742   6.830   9.076   8.585
27579SOL     OW84743   5.690   8.704   8.480
27579SOL    HW184744   5.654   8.723   8.569
27579SOL    HW284745   5.611   8.672   8.433
27580SOL     OW84746   6.282   9.091   9.183
27580SOL    HW184747   6.245   9.180   9.170
27580SOL    HW284748   6.373   9.099   9.152
27581SOL     OW84749   7.268   7.597   7.937
27581SOL    HW184750   7.345   7.579   7.881
27581SOL    HW284751   7.265   7.519   7.995
27582SOL     OW84752   6.955   9.027   7.930
27582SOL    HW184753   7.009   9.053   7.853
27582SOL    HW284754   6.907   9.109   7.950
27583SOL     OW84755   5.736   9.250   9.284
27583SOL    HW184756   5.694   9.178   9.336
27583SOL    HW284757   5.784   9.296   9.355
27584SOL     OW84758   6.832   8.365   8.113
27584SOL    HW184759   6.913   8.315   8.134
27584SOL    HW284760   6.869   8.442   8.066
27585SOL     OW84761   6.403   8.700   8.877
27585SOL    HW184762   6.373   8.748   8.957
27585SOL    HW284763   6.334   8.726   8.814
27586SOL     OW84764   6.255   9.068   7.606
27586SOL    HW184765   6.270   9.081   7.511
27586SOL    HW284766   6.195   8.990   7.605
27587SOL     OW84767   7.212   9.165   8.829
27587SOL    HW184768   7.261   9.187   8.749
27587SOL    HW284769   7.192   9.254   8.866
27588SOL     OW84770   7.430   7.626   8.426
27588SOL    HW184771   7.451   7.536   8.393
27588SOL    HW284772   7.345   7.647   8.382
27589SOL     OW84773   5.836   7.767   8.150
27589SOL    HW184774   5.750   7.808   8.128
27589SOL    HW284775   5.837   7.774   8.246
27590SOL     OW84776   6.775   9.097   7.479
27590SOL    HW184777   6.779   9.002   7.501
27590SOL    HW284778   6.720   9.099   7.399
27591SOL     OW84779   6.404   8.437   8.818
27591SOL    HW184780   6.417   8.466   8.727
27591SOL    HW284781   6.402   8.523   8.864
27592SOL     OW84782   6.503   8.354   7.721
27592SOL    HW184783   6.576   8.392   7.666
27592SOL    HW284784   6.541   8.273   7.756
27593SOL     OW84785   7.128   9.078   7.478
27593SOL    HW184786   7.032   9.084   7.473
27593SOL    HW284787   7.154   9.077   7.383
27594SOL     OW84788   5.925   8.720   8.936
27594SOL    HW184789   5.920   8.789   8.868
27594SOL    HW284790   5.842   8.672   8.925
27595SOL     OW84791   7.181   8.755   8.714
27595SOL    HW184792   7.229   8.722   8.791
27595SOL    HW284793   7.114   8.812   8.758
27596SOL     OW84794   6.639   8.562   8.181
27596SOL    HW184795   6.552   8.521   8.177
27596SOL    HW284796   6.695   8.497   8.135
27597SOL     OW84797   6.614   7.678   8.440
27597SOL    HW184798   6.595   7.639   8.352
27597SOL    HW284799   6.618   7.598   8.495
27598SOL     OW84800   6.207   8.935   7.949
27598SOL    HW184801   6.259   8.903   7.874
27598SOL    HW284802   6.129   8.973   7.906
27599SOL     OW84803   7.295   7.822   8.828
27599SOL    HW184804   7.360   7.895   8.827
27599SOL    HW284805   7.340   7.756   8.770
27600SOL     OW84806   5.844   8.823   7.722
27600SOL    HW184807   5.748   8.812   7.708
27600SOL    HW284808   5.846   8.849   7.817
27601SOL     OW84809   5.715   8.455   9.157
27601SOL    HW184810   5.641   8.452   9.220
27601SOL    HW284811   5.789   8.418   9.209
27602SOL     OW84812   6.229   7.630   8.944
27602SOL    HW184813   6.313   7.608   8.899
27602SOL    HW284814   6.260   7.663   9.030
27603SOL     OW84815   5.690   7.793   7.476
27603SOL    HW184816   5.598   7.785   7.449
27603SOL    HW284817   5.721   7.866   7.420
27604SOL     OW84818   7.032   8.291   8.839
27604SOL    HW184819   6.990   8.359   8.783
27604SOL    HW284820   7.125   8.317   8.832
27605SOL     OW84821   5.637   7.613   7.752
27605SOL    HW184822   5.632   7.694   7.699
27605SOL    HW284823   5.722   7.576   7.721
27606SOL     OW84824   6.792   8.815   7.563
27606SOL    HW184825   6.712   8.761   7.565
27606SOL    HW284826   6.820   8.813   7.657
27607SOL     OW84827   6.193   8.262   8.885
27607SOL    HW184828   6.241   8.346   8.880
27607SOL    HW284829   6.268   8.200   8.891
27608SOL     OW84830   7.102   9.191   8.407
27608SOL    HW184831   7.129   9.236   8.326
27608SOL    HW284832   7.156   9.234   8.474
27609SOL     OW84833   6.315   7.984   9.123
27609SOL    HW184834   6.345   8.039   9.196
27609SOL    HW284835   6.329   7.892   9.153
27610SOL     OW84836   7.049   8.633   9.076
27610SOL    HW184837   7.037   8.642   9.173
27610SOL    HW284838   7.145   8.651   9.068
27611SOL     OW84839   5.960   9.183   9.011
27611SOL    HW184840   5.876   9.230   8.997
27611SOL    HW284841   5.930   9.098   9.047
27612SOL     OW84842   7.276   8.334   8.681
27612SOL    HW184843   7.252   8.244   8.652
27612SOL    HW284844   7.243   8.391   8.610
27613SOL     OW84845   6.789   7.771   7.918
27613SOL    HW184846   6.853   7.700   7.906
27613SOL    HW284847   6.829   7.822   7.991
27614SOL     OW84848   6.173   8.198   8.119
27614SOL    HW184849   6.202   8.287   8.096
27614SOL    HW284850   6.113   8.177   8.046
27615SOL     OW84851   7.352   7.827   9.085
27615SOL    HW184852   7.321   7.834   8.993
27615SOL    HW284853   7.278   7.781   9.128
27616SOL     OW84854   7.314   8.379   8.941
27616SOL    HW184855   7.329   8.474   8.943
27616SOL    HW284856   7.319   8.358   8.846
27617SOL     OW84857   6.443   8.811   7.473
27617SOL    HW184858   6.418   8.828   7.565
27617SOL    HW284859   6.470   8.898   7.439
27618SOL     OW84860   6.227   9.250   8.372
27618SOL    HW184861   6.210   9.346   8.363
27618SOL    HW284862   6.323   9.244   8.362
27619SOL     OW84863   6.441   8.380   8.315
27619SOL    HW184864   6.536   8.369   8.330
27619SOL    HW284865   6.423   8.462   8.364
27620SOL     OW84866   6.686   8.453   7.552
27620SOL    HW184867   6.654   8.499   7.473
27620SOL    HW284868   6.748   8.389   7.513
27621SOL     OW84869   7.389   8.986   8.359
27621SOL    HW184870   7.339   8.997   8.276
27621SOL    HW284871   7.462   8.928   8.332
27622SOL     OW84872   5.836   8.760   9.318
27622SOL    HW184873   5.760   8.705   9.297
27622SOL    HW284874   5.830   8.768   9.415
27623SOL     OW84875   5.670   8.678   8.111
27623SOL    HW184876   5.679   8.609   8.177
27623SOL    HW284877   5.755   8.673   8.065
27624SOL     OW84878   6.259   8.845   9.058
27624SOL    HW184879   6.184   8.797   9.098
27624SOL    HW284880   6.252   8.932   9.101
27625SOL     OW84881   7.396   7.617   8.684
27625SOL    HW184882   7.421   7.524   8.690
27625SOL    HW284883   7.409   7.632   8.588
27626SOL     OW84884   6.041   7.872   7.993
27626SOL    HW184885   6.070   7.805   7.930
27626SOL    HW284886   5.977   7.824   8.050
27627SOL     OW84887   5.918   7.982   8.735
27627SOL    HW184888   5.984   7.936   8.789
27627SOL    HW284889   5.933   7.947   8.645
27628SOL     OW84890   6.418   9.039   8.126
27628SOL    HW184891   6.410   9.104   8.055
27628SOL    HW284892   6.330   8.998   8.126
27629SOL     OW84893   7.009   7.686   8.550
27629SOL    HW184894   7.045   7.601   8.579
27629SOL    HW284895   6.977   7.726   8.632
27630SOL     OW84896   6.601   7.441   8.614
27630SOL    HW184897   6.544   7.373   8.576
27630SOL    HW284898   6.690   7.402   8.603
27631SOL     OW84899   6.378   8.791   7.759
27631SOL    HW184900   6.343   8.701   7.751
27631SOL    HW284901   6.450   8.780   7.823
27632SOL     OW84902   6.188   9.001   8.712
27632SOL    HW184903   6.187   9.083   8.766
27632SOL    HW284904   6.280   9.002   8.683
27633SOL     OW84905   6.906   7.479   7.634
27633SOL    HW184906   6.911   7.422   7.557
27633SOL    HW284907   6.816   7.457   7.669
27634SOL     OW84908   6.880   7.918   8.134
27634SOL    HW184909   6.822   7.996   8.124
27634SOL    HW284910   6.861   7.890   8.225
27635SOL     OW84911   7.188   7.657   8.312
27635SOL    HW184912   7.114   7.669   8.373
27635SOL    HW284913   7.183   7.737   8.256
27636SOL     OW84914   5.624   8.522   7.756
27636SOL    HW184915   5.721   8.522   7.751
27636SOL    HW284916   5.607   8.428   7.777
27637SOL     OW84917   6.460   9.095   7.781
27637SOL    HW184918   6.385   9.080   7.720
27637SOL    HW284919   6.432   9.175   7.831
27638SOL     OW84920   5.824   8.085   9.439
27638SOL    HW184921   5.734   8.060   9.465
27638SOL    HW284922   5.826   8.066   9.344
27639SOL     OW84923   5.823   7.716  10.275
27639SOL    HW184924   5.840   7.699  10.370
27639SOL    HW284925   5.731   7.681  10.269
27640SOL     OW84926   5.641   7.832   9.963
27640SOL    HW184927   5.558   7.857  10.008
27640SOL    HW284928   5.608   7.758   9.909
27641SOL     OW84929   6.159   8.753  10.464
27641SOL    HW184930   6.065   8.732  10.455
27641SOL    HW284931   6.157   8.837  10.512
27642SOL     OW84932   7.142   8.970  10.024
27642SOL    HW184933   7.107   8.943  10.111
27642SOL    HW284934   7.064   8.969   9.966
27643SOL     OW84935   6.696   8.135   9.996
27643SOL    HW184936   6.744   8.219   9.984
27643SOL    HW284937   6.651   8.150  10.080
27644SOL     OW84938   7.357   8.060   9.548
27644SOL    HW184939   7.337   8.049   9.453
27644SOL    HW284940   7.308   7.987   9.589
27645SOL     OW84941   6.346   8.605  10.347
27645SOL    HW184942   6.277   8.656  10.396
27645SOL    HW284943   6.381   8.677  10.292
27646SOL     OW84944   6.429   8.210   0.013
27646SOL    HW184945   6.435   8.285   0.073
27646SOL    HW284946   6.472   8.248  11.034
27647SOL     OW84947   6.274   8.477   9.970
27647SOL    HW184948   6.340   8.459  10.040
27647SOL    HW284949   6.204   8.525  10.017
27648SOL     OW84950   5.900   8.889  10.392
27648SOL    HW184951   5.833   8.847  10.336
27648SOL    HW284952   5.958   8.935  10.328
27649SOL     OW84953   7.062   8.956  10.660
27649SOL    HW184954   7.120   9.033  10.677
27649SOL    HW284955   6.990   8.972  10.724
27650SOL     OW84956   6.034   7.827  10.772
27650SOL    HW184957   6.109   7.768  10.790
27650SOL    HW284958   5.958   7.778  10.806
27651SOL     OW84959   7.208   7.896  10.060
27651SOL    HW184960   7.140   7.934  10.002
27651SOL    HW284961   7.206   7.956  10.135
27652SOL     OW84962   5.806   9.160   9.788
27652SOL    HW184963   5.834   9.238   9.840
27652SOL    HW284964   5.866   9.165   9.712
27653SOL     OW84965   5.829   8.879   9.842
27653SOL    HW184966   5.831   8.976   9.847
27653SOL    HW284967   5.761   8.857   9.907
27654SOL     OW84968   5.836   8.523  10.176
27654SOL    HW184969   5.860   8.444  10.227
27654SOL    HW284970   5.800   8.582  10.245
27655SOL     OW84971   6.193   9.243  10.738
27655SOL    HW184972   6.118   9.227  10.798
27655SOL    HW284973   6.213   9.337  10.755
27656SOL     OW84974   6.157   8.440   9.420
27656SOL    HW184975   6.212   8.485   9.352
27656SOL    HW284976   6.197   8.475   9.501
27657SOL     OW84977   7.171   7.561  10.787
27657SOL    HW184978   7.178   7.650  10.751
27657SOL    HW284979   7.177   7.575  10.882
27658SOL     OW84980   5.697   8.099   9.872
27658SOL    HW184981   5.669   8.009   9.895
27658SOL    HW284982   5.692   8.146   9.958
27659SOL     OW84983   7.438   9.186   9.656
27659SOL    HW184984   7.508   9.171   9.723
27659SOL    HW284985   7.453   9.279   9.634
27660SOL     OW84986   5.650   9.042   9.436
27660SOL    HW184987   5.622   8.952   9.460
27660SOL    HW284988   5.617   9.094   9.511
27661SOL     OW84989   7.268   8.362   9.916
27661SOL    HW184990   7.350   8.332   9.875
27661SOL    HW284991   7.238   8.427   9.849
27662SOL     OW84992   7.227   8.573   9.745
27662SOL    HW184993   7.319   8.568   9.715
27662SOL    HW284994   7.237   8.634   9.822
27663SOL     OW84995   5.694   8.191  10.894
27663SOL    HW184996   5.781   8.213  10.930
27663SOL    HW284997   5.648   8.276  10.901
27664SOL     OW84998   6.179   8.859  10.067
27664SOL    HW184999   6.136   8.770  10.075
27664SOL    HW285000   6.172   8.872   9.970
27665SOL     OW85001   6.886   8.695  10.744
27665SOL    HW185002   6.910   8.626  10.679
27665SOL    HW285003   6.945   8.677  10.818
27666SOL     OW85004   6.421   7.450   9.797
27666SOL    HW185005   6.448   7.543   9.800
27666SOL    HW285006   6.325   7.457   9.811
27667SOL     OW85007   5.787   8.409  10.608
27667SOL    HW185008   5.872   8.363  10.597
27667SOL    HW285009   5.723   8.347  10.570
27668SOL     OW85010   7.133   8.416   9.496
27668SOL    HW185011   7.053   8.372   9.530
27668SOL    HW285012   7.166   8.460   9.576
27669SOL     OW85013   6.788   9.229  10.923
27669SOL    HW185014   6.777   9.318  10.883
27669SOL    HW285015   6.801   9.172  10.845
27670SOL     OW85016   5.941   7.697   0.006
27670SOL    HW185017   5.991   7.757   0.062
27670SOL    HW285018   5.854   7.741   0.003
27671SOL     OW85019   7.060   8.860  10.268
27671SOL    HW185020   6.995   8.879  10.339
27671SOL    HW285021   7.032   8.771  10.239
27672SOL     OW85022   7.241   9.191   9.905
27672SOL    HW185023   7.219   9.150   9.821
27672SOL    HW285024   7.218   9.118   9.967
27673SOL     OW85025   6.174   8.166   9.575
27673SOL    HW185026   6.182   8.247   9.524
27673SOL    HW285027   6.103   8.187   9.637
27674SOL     OW85028   6.866   7.807  10.249
27674SOL    HW185029   6.780   7.763  10.254
27674SOL    HW285030   6.919   7.757  10.314
27675SOL     OW85031   7.159   9.090   9.619
27675SOL    HW185032   7.253   9.114   9.623
27675SOL    HW285033   7.148   9.081   9.523
27676SOL     OW85034   6.398   8.064  10.771
27676SOL    HW185035   6.373   8.034  10.861
27676SOL    HW285036   6.351   8.000  10.714
27677SOL     OW85037   6.541   8.315  10.888
27677SOL    HW185038   6.590   8.246  10.840
27677SOL    HW285039   6.496   8.364  10.817
27678SOL     OW85040   6.562   7.842  10.555
27678SOL    HW185041   6.476   7.858  10.597
27678SOL    HW285042   6.539   7.785  10.481
27679SOL     OW85043   6.617   8.130   9.715
27679SOL    HW185044   6.641   8.146   9.808
27679SOL    HW285045   6.532   8.083   9.723
27680SOL     OW85046   5.686   8.256  10.099
27680SOL    HW185047   5.768   8.258  10.152
27680SOL    HW285048   5.646   8.342  10.121
27681SOL     OW85049   5.702   9.303  10.870
27681SOL    HW185050   5.698   9.251  10.951
27681SOL    HW285051   5.612   9.299  10.838
27682SOL     OW85052   6.458   7.831   9.516
27682SOL    HW185053   6.501   7.883   9.447
27682SOL    HW285054   6.479   7.741   9.488
27683SOL     OW85055   6.952   8.600   9.875
27683SOL    HW185056   7.025   8.587   9.813
27683SOL    HW285057   6.895   8.660   9.825
27684SOL     OW85058   6.138   7.670  10.203
27684SOL    HW185059   6.137   7.660  10.301
27684SOL    HW285060   6.169   7.761  10.192
27685SOL     OW85061   6.578   8.895   9.779
27685SOL    HW185062   6.531   8.959   9.722
27685SOL    HW285063   6.592   8.946   9.860
27686SOL     OW85064   5.932   9.254  10.165
27686SOL    HW185065   5.973   9.168  10.185
27686SOL    HW285066   6.004   9.316  10.184
27687SOL     OW85067   7.405   8.484  10.163
27687SOL    HW185068   7.340   8.474  10.092
27687SOL    HW285069   7.349   8.492  10.242
27688SOL     OW85070   6.827   9.002  10.786
27688SOL    HW185071   6.803   8.946  10.861
27688SOL    HW285072   6.756   8.983  10.725
27689SOL     OW85073   5.895   8.395   9.558
27689SOL    HW185074   5.971   8.422   9.505
27689SOL    HW285075   5.864   8.316   9.509
27690SOL     OW85076   7.061   8.216  10.040
27690SOL    HW185077   7.074   8.177  10.127
27690SOL    HW285078   7.146   8.259  10.022
27691SOL     OW85079   6.056   8.729  11.040
27691SOL    HW185080   6.025   8.734  10.947
27691SOL    HW285081   6.007   8.652  11.072
27692SOL     OW85082   6.673   9.228   9.550
27692SOL    HW185083   6.614   9.170   9.601
27692SOL    HW285084   6.693   9.174   9.471
27693SOL     OW85085   5.760   7.733  10.786
27693SOL    HW185086   5.694   7.795  10.818
27693SOL    HW285087   5.743   7.653  10.838
27694SOL     OW85088   7.205   8.813   9.408
27694SOL    HW185089   7.167   8.899   9.386
27694SOL    HW285090   7.139   8.749   9.373
27695SOL     OW85091   6.039   9.183   9.633
27695SOL    HW185092   6.088   9.237   9.699
27695SOL    HW285093   6.110   9.150   9.575
27696SOL     OW85094   6.966   7.551   9.745
27696SOL    HW185095   6.977   7.506   9.659
27696SOL    HW285096   7.058   7.564   9.772
27697SOL     OW85097   5.830   9.246  10.543
27697SOL    HW185098   5.897   9.192  10.587
27697SOL    HW285099   5.818   9.202  10.458
27698SOL     OW85100   6.545   9.156  10.186
27698SOL    HW185101   6.624   9.104  10.202
27698SOL    HW285102   6.497   9.100  10.122
27699SOL     OW85103   5.958   8.147   9.774
27699SOL    HW185104   5.984   8.054   9.779
27699SOL    HW285105   5.863   8.143   9.792
27700SOL     OW85106   6.210   7.581   9.409
27700SOL    HW185107   6.280   7.521   9.438
27700SOL    HW285108   6.163   7.527   9.342
27701SOL     OW85109   6.364   7.707  11.029
27701SOL    HW185110   6.435   7.670  11.083
27701SOL    HW285111   6.292   7.715  11.094
27702SOL     OW85112   6.476   8.991  10.503
27702SOL    HW185113   6.466   8.950  10.415
27702SOL    HW285114   6.543   8.935  10.546
27703SOL     OW85115   6.931   8.040  10.734
27703SOL    HW185116   6.979   8.010  10.812
27703SOL    HW285117   6.970   8.128  10.718
27704SOL     OW85118   6.404   8.858  10.254
27704SOL    HW185119   6.491   8.846  10.210
27704SOL    HW285120   6.341   8.848  10.181
27705SOL     OW85121   6.519   7.963  10.221
27705SOL    HW185122   6.488   7.953  10.129
27705SOL    HW285123   6.554   7.874  10.240
27706SOL     OW85124   6.147   7.499   9.806
27706SOL    HW185125   6.075   7.514   9.871
27706SOL    HW285126   6.135   7.577   9.749
27707SOL     OW85127   7.030   8.625   9.336
27707SOL    HW185128   7.059   8.549   9.390
27707SOL    HW285129   6.942   8.646   9.372
27708SOL     OW85130   5.866   7.497   9.507
27708SOL    HW185131   5.925   7.564   9.468
27708SOL    HW285132   5.930   7.435   9.545
27709SOL     OW85133   6.513   7.707   9.807
27709SOL    HW185134   6.502   7.757   9.725
27709SOL    HW285135   6.608   7.718   9.823
27710SOL     OW85136   6.683   8.128  10.757
27710SOL    HW185137   6.625   8.051  10.762
27710SOL    HW285138   6.772   8.090  10.759
27711SOL     OW85139   6.812   9.016  10.110
27711SOL    HW185140   6.818   9.080  10.037
27711SOL    HW285141   6.881   9.047  10.170
27712SOL     OW85142   6.049   8.620  10.045
27712SOL    HW185143   5.973   8.587  10.097
27712SOL    HW285144   6.020   8.593   9.955
27713SOL     OW85145   6.843   9.254   9.924
27713SOL    HW185146   6.893   9.322   9.875
27713SOL    HW285147   6.790   9.307   9.986
27714SOL     OW85148   6.648   7.975   9.332
27714SOL    HW185149   6.600   8.059   9.316
27714SOL    HW285150   6.716   8.001   9.397
27715SOL     OW85151   5.660   8.000  10.692
27715SOL    HW185152   5.756   7.992  10.675
27715SOL    HW285153   5.659   8.075  10.755
27716SOL     OW85154   6.151   7.662  10.471
27716SOL    HW185155   6.192   7.592  10.524
27716SOL    HW285156   6.061   7.665  10.508
27717SOL     OW85157   6.446   7.915   9.976
27717SOL    HW185158   6.411   7.968   9.903
27717SOL    HW285159   6.466   7.831   9.933
27718SOL     OW85160   6.634   7.521  10.072
27718SOL    HW185161   6.580   7.509   9.994
27718SOL    HW285162   6.607   7.443  10.126
27719SOL     OW85163   7.003   8.612  10.192
27719SOL    HW185164   6.935   8.548  10.213
27719SOL    HW285165   7.000   8.614  10.095
27720SOL     OW85166   7.060   8.049  10.285
27720SOL    HW185167   7.012   7.965  10.297
27720SOL    HW285168   7.125   8.048  10.357
27721SOL     OW85169   7.435   8.273   9.701
27721SOL    HW185170   7.487   8.215   9.761
27721SOL    HW285171   7.413   8.210   9.630
27722SOL     OW85172   6.082   8.876   9.437
27722SOL    HW185173   6.002   8.863   9.491
27722SOL    HW285174   6.062   8.825   9.358
27723SOL     OW85175   7.270   8.730   9.961
27723SOL    HW185176   7.366   8.737   9.977
27723SOL    HW285177   7.234   8.816   9.987
27724SOL     OW85178   6.992   8.050   9.368
27724SOL    HW185179   6.949   8.019   9.450
27724SOL    HW285180   7.085   8.034   9.386
27725SOL     OW85181   6.100   7.698   9.630
27725SOL    HW185182   6.142   7.661   9.550
27725SOL    HW285183   6.073   7.785   9.596
27726SOL     OW85184   7.340   8.682  10.869
27726SOL    HW185185   7.432   8.659  10.888
27726SOL    HW285186   7.336   8.774  10.898
27727SOL     OW85187   6.638   8.816  10.656
27727SOL    HW185188   6.563   8.771  10.699
27727SOL    HW285189   6.714   8.761  10.685
27728SOL     OW85190   6.692   8.675  10.411
27728SOL    HW185191   6.616   8.692  10.468
27728SOL    HW285192   6.670   8.724  10.330
27729SOL     OW85193   7.209   8.543  10.388
27729SOL    HW185194   7.218   8.607  10.461
27729SOL    HW285195   7.142   8.587  10.334
27730SOL     OW85196   6.498   7.565  10.686
27730SOL    HW185197   6.531   7.529  10.602
27730SOL    HW285198   6.580   7.599  10.726
27731SOL     OW85199   6.289   8.513   9.657
27731SOL    HW185200   6.280   8.500   9.753
27731SOL    HW285201   6.360   8.449   9.635
27732SOL     OW85202   6.016   8.263  10.586
27732SOL    HW185203   6.088   8.269  10.653
27732SOL    HW285204   5.983   8.172  10.601
27733SOL     OW85205   6.846   7.824  10.586
27733SOL    HW185206   6.871   7.908  10.630
27733SOL    HW285207   6.761   7.847  10.544
27734SOL     OW85208   5.658   9.012  10.636
27734SOL    HW185209   5.637   9.105  10.618
27734SOL    HW285210   5.755   9.013  10.644
27735SOL     OW85211   5.959   8.553   9.805
27735SOL    HW185212   5.997   8.617   9.743
27735SOL    HW285213   5.949   8.474   9.750
27736SOL     OW85214   6.120   7.987  10.150
27736SOL    HW185215   6.146   8.056  10.086
27736SOL    HW285216   6.182   8.007  10.223
27737SOL     OW85217   6.811   8.780   9.707
27737SOL    HW185218   6.856   8.859   9.743
27737SOL    HW285219   6.719   8.797   9.734
27738SOL     OW85220   6.878   8.902  10.467
27738SOL    HW185221   6.934   8.909  10.546
27738SOL    HW285222   6.814   8.833  10.490
27739SOL     OW85223   7.171   8.073   9.788
27739SOL    HW185224   7.119   8.130   9.847
27739SOL    HW285225   7.204   8.135   9.723
27740SOL     OW85226   5.934   8.950  10.642
27740SOL    HW185227   5.920   8.925  10.548
27740SOL    HW285228   6.030   8.969  10.644
27741SOL     OW85229   6.040   8.161  10.931
27741SOL    HW185230   6.102   8.206  10.869
27741SOL    HW285231   6.064   8.068  10.918
27742SOL     OW85232   7.212   8.215  11.012
27742SOL    HW185233   7.132   8.264  10.997
27742SOL    HW285234   7.273   8.258  10.950
27743SOL     OW85235   6.143   8.340  10.352
27743SOL    HW185236   6.193   8.424  10.352
27743SOL    HW285237   6.112   8.332  10.444
27744SOL     OW85238   6.916   8.293  10.353
27744SOL    HW185239   6.845   8.267  10.293
27744SOL    HW285240   6.980   8.222  10.339
27745SOL     OW85241   6.810   7.970   9.571
27745SOL    HW185242   6.818   7.900   9.637
27745SOL    HW285243   6.744   8.028   9.614
27746SOL     OW85244   5.870   7.665  10.535
27746SOL    HW185245   5.838   7.698  10.621
27746SOL    HW285246   5.850   7.570  10.543
27747SOL     OW85247   5.644   8.731  10.591
27747SOL    HW185248   5.671   8.685  10.673
27747SOL    HW285249   5.631   8.822  10.621
27748SOL     OW85250   6.289   8.079  10.343
27748SOL    HW185251   6.378   8.064  10.306
27748SOL    HW285252   6.272   8.174  10.329
27749SOL     OW85253   5.899   7.536   9.920
27749SOL    HW185254   5.804   7.546   9.930
27749SOL    HW285255   5.921   7.478   9.997
27750SOL     OW85256   7.177   7.826   9.668
27750SOL    HW185257   7.209   7.758   9.730
27750SOL    HW285258   7.172   7.906   9.726
27751SOL     OW85259   6.619   8.206  10.267
27751SOL    HW185260   6.618   8.229  10.362
27751SOL    HW285261   6.599   8.110  10.267
27752SOL     OW85262   6.585   8.993  10.966
27752SOL    HW185263   6.568   9.068  10.906
27752SOL    HW285264   6.534   8.922  10.924
27753SOL     OW85265   7.437   8.947  10.907
27753SOL    HW185266   7.460   8.972  10.816
27753SOL    HW285267   7.519   8.964  10.955
27754SOL     OW85268   5.968   8.371  11.067
27754SOL    HW185269   6.043   8.377   0.027
27754SOL    HW285270   5.990   8.289  11.019
27755SOL     OW85271   7.087   7.703   9.441
27755SOL    HW185272   7.014   7.647   9.473
27755SOL    HW285273   7.123   7.741   9.523
27756SOL     OW85274   6.866   8.289   9.334
27756SOL    HW185275   6.913   8.204   9.342
27756SOL    HW285276   6.905   8.324   9.251
27757SOL     OW85277   6.645   8.810  10.163
27757SOL    HW185278   6.653   8.736  10.099
27757SOL    HW285279   6.717   8.871  10.138
27758SOL     OW85280   5.898   8.260  10.269
27758SOL    HW185281   5.990   8.281  10.294
27758SOL    HW285282   5.880   8.181  10.322
27759SOL     OW85283   5.908   7.975  10.312
27759SOL    HW185284   5.898   7.879  10.305
27759SOL    HW285285   5.985   7.992  10.253
27760SOL     OW85286   6.740   7.658  10.774
27760SOL    HW185287   6.763   7.709  10.852
27760SOL    HW285288   6.779   7.711  10.703
27761SOL     OW85289   5.578   8.777   9.520
27761SOL    HW185290   5.490   8.791   9.475
27761SOL    HW285291   5.584   8.680   9.524
27762SOL     OW85292   5.677   9.230  10.245
27762SOL    HW185293   5.654   9.154  10.189
27762SOL    HW285294   5.770   9.249  10.218
27763SOL     OW85295   6.076   9.032  10.250
27763SOL    HW185296   6.145   9.098  10.268
27763SOL    HW285297   6.121   8.971  10.189
27764SOL     OW85298   6.574   8.251  10.539
27764SOL    HW185299   6.637   8.215  10.604
27764SOL    HW285300   6.492   8.209  10.569
27765SOL     OW85301   5.623   7.966  10.417
27765SOL    HW185302   5.712   7.969  10.379
27765SOL    HW285303   5.642   7.969  10.512
27766SOL     OW85304   6.371   8.009   9.708
27766SOL    HW185305   6.393   7.952   9.631
27766SOL    HW285306   6.302   8.067   9.670
27767SOL     OW85307   7.238   8.068  10.496
27767SOL    HW185308   7.224   7.999  10.562
27767SOL    HW285309   7.324   8.039  10.457
27768SOL     OW85310   5.822   8.996  11.034
27768SOL    HW185311   5.766   9.025   0.008
27768SOL    HW285312   5.876   8.926  11.073
27769SOL     OW85313   6.278   7.925  10.578
27769SOL    HW185314   6.232   7.845  10.547
27769SOL    HW285315   6.271   7.986  10.502
27770SOL     OW85316   6.517   9.144  10.744
27770SOL    HW185317   6.494   9.118  10.653
27770SOL    HW285318   6.505   9.241  10.742
27771SOL     OW85319   6.033   7.927   9.505
27771SOL    HW185320   6.097   7.999   9.516
27771SOL    HW285321   5.953   7.978   9.482
27772SOL     OW85322   5.744   8.591  10.796
27772SOL    HW185323   5.740   8.532  10.875
27772SOL    HW285324   5.764   8.527  10.724
27773SOL     OW85325   6.893   8.501  10.544
27773SOL    HW185326   6.913   8.432  10.477
27773SOL    HW285327   6.820   8.549  10.501
27774SOL     OW85328   6.890   8.309   9.600
27774SOL    HW185329   6.808   8.285   9.644
27774SOL    HW285330   6.868   8.302   9.506
27775SOL     OW85331   7.344   9.199  10.442
27775SOL    HW185332   7.410   9.221  10.374
27775SOL    HW285333   7.339   9.102  10.434
27776SOL     OW85334   6.821   9.165  10.437
27776SOL    HW185335   6.911   9.190  10.411
27776SOL    HW285336   6.829   9.069  10.450
27777SOL     OW85337   5.703   8.696  10.334
27777SOL    HW185338   5.696   8.719  10.429
27777SOL    HW285339   5.612   8.676  10.313
27778SOL     OW85340   7.265   7.591   9.808
27778SOL    HW185341   7.340   7.576   9.748
27778SOL    HW285342   7.259   7.506   9.855
27779SOL     OW85343   6.948   9.021   9.799
27779SOL    HW185344   7.012   9.037   9.727
27779SOL    HW285345   6.910   9.110   9.815
27780SOL     OW85346   6.842   8.365   9.975
27780SOL    HW185347   6.923   8.317  10.000
27780SOL    HW285348   6.878   8.443   9.929
27781SOL     OW85349   6.393   8.709  10.744
27781SOL    HW185350   6.367   8.748  10.830
27781SOL    HW285351   6.319   8.735  10.688
27782SOL     OW85352   6.253   9.069   9.474
27782SOL    HW185353   6.266   9.080   9.378
27782SOL    HW285354   6.195   8.989   9.473
27783SOL     OW85355   7.218   9.169  10.690
27783SOL    HW185356   7.260   9.188  10.605
27783SOL    HW285357   7.208   9.257  10.729
27784SOL     OW85358   7.438   7.624  10.267
27784SOL    HW185359   7.461   7.532  10.242
27784SOL    HW285360   7.347   7.634  10.231
27785SOL     OW85361   6.764   9.082   9.342
27785SOL    HW185362   6.774   8.986   9.352
27785SOL    HW285363   6.708   9.090   9.263
27786SOL     OW85364   6.406   8.444  10.698
27786SOL    HW185365   6.453   8.440  10.614
27786SOL    HW285366   6.416   8.537  10.724
27787SOL     OW85367   6.486   8.354   9.588
27787SOL    HW185368   6.561   8.397   9.542
27787SOL    HW285369   6.528   8.277   9.630
27788SOL     OW85370   7.137   9.071   9.339
27788SOL    HW185371   7.041   9.084   9.334
27788SOL    HW285372   7.163   9.070   9.244
27789SOL     OW85373   5.959   8.735  10.800
27789SOL    HW185374   5.935   8.808  10.739
27789SOL    HW285375   5.875   8.684  10.801
27790SOL     OW85376   7.203   8.750  10.580
27790SOL    HW185377   7.250   8.726  10.661
27790SOL    HW285378   7.143   8.821  10.612
27791SOL     OW85379   6.636   8.572  10.028
27791SOL    HW185380   6.560   8.521  10.062
27791SOL    HW285381   6.697   8.502  10.002
27792SOL     OW85382   6.620   7.680  10.291
27792SOL    HW185383   6.615   7.633  10.206
27792SOL    HW285384   6.618   7.605  10.354
27793SOL     OW85385   6.191   8.918   9.800
27793SOL    HW185386   6.245   8.888   9.726
27793SOL    HW285387   6.122   8.970   9.757
27794SOL     OW85388   7.289   7.837  10.698
27794SOL    HW185389   7.357   7.907  10.701
27794SOL    HW285390   7.329   7.773  10.635
27795SOL     OW85391   5.832   8.824   9.581
27795SOL    HW185392   5.735   8.825   9.567
27795SOL    HW285393   5.838   8.844   9.676
27796SOL     OW85394   5.719   8.457  11.021
27796SOL    HW185395   5.662   8.449  11.097
27796SOL    HW285396   5.806   8.427  11.055
27797SOL     OW85397   6.257   7.648  10.785
27797SOL    HW185398   6.342   7.628  10.741
27797SOL    HW285399   6.287   7.669  10.876
27798SOL     OW85400   5.670   7.821   9.355
27798SOL    HW185401   5.588   7.790   9.315
27798SOL    HW285402   5.704   7.883   9.288
27799SOL     OW85403   7.034   8.297  10.737
27799SOL    HW185404   6.973   8.358  10.694
27799SOL    HW285405   7.118   8.322  10.694
27800SOL     OW85406   5.640   7.607   9.610
27800SOL    HW185407   5.637   7.695   9.570
27800SOL    HW285408   5.725   7.572   9.575
27801SOL     OW85409   6.788   8.801   9.424
27801SOL    HW185410   6.701   8.759   9.432
27801SOL    HW285411   6.816   8.805   9.517
27802SOL     OW85412   6.220   8.264  10.755
27802SOL    HW185413   6.282   8.339  10.742
27802SOL    HW285414   6.283   8.190  10.765
27803SOL     OW85415   7.092   9.197  10.292
27803SOL    HW185416   7.134   9.245  10.219
27803SOL    HW285417   7.162   9.196  10.359
27804SOL     OW85418   6.301   7.997  11.017
27804SOL    HW185419   6.337   8.070  11.071
27804SOL    HW285420   6.350   7.920  11.047
27805SOL     OW85421   5.957   9.176  10.868
27805SOL    HW185422   5.882   9.237  10.855
27805SOL    HW285423   5.920   9.110  10.929
27806SOL     OW85424   7.263   8.341  10.577
27806SOL    HW185425   7.258   8.251  10.542
27806SOL    HW285426   7.244   8.397  10.499
27807SOL     OW85427   6.786   7.776   9.781
27807SOL    HW185428   6.847   7.702   9.770
27807SOL    HW285429   6.827   7.823   9.857
27808SOL     OW85430   6.184   8.191   9.958
27808SOL    HW185431   6.226   8.278   9.957
27808SOL    HW285432   6.103   8.206   9.906
27809SOL     OW85433   7.360   7.751  10.949
27809SOL    HW185434   7.329   7.774  10.859
27809SOL    HW285435   7.282   7.769  11.003
27810SOL     OW85436   7.344   8.394  10.833
27810SOL    HW185437   7.333   8.490  10.844
27810SOL    HW285438   7.329   8.382  10.737
27811SOL     OW85439   6.435   8.814   9.343
27811SOL    HW185440   6.407   8.829   9.435
27811SOL    HW285441   6.461   8.901   9.310
27812SOL     OW85442   6.237   9.254  10.228
27812SOL    HW185443   6.221   9.350  10.223
27812SOL    HW285444   6.332   9.246  10.213
27813SOL     OW85445   6.458   8.402  10.160
27813SOL    HW185446   6.510   8.327  10.194
27813SOL    HW285447   6.443   8.456  10.240
27814SOL     OW85448   6.677   8.452   9.418
27814SOL    HW185449   6.643   8.501   9.341
27814SOL    HW285450   6.741   8.392   9.377
27815SOL     OW85451   7.419   8.994  10.160
27815SOL    HW185452   7.343   8.982  10.102
27815SOL    HW285453   7.390   8.953  10.243
27816SOL     OW85454   5.682   8.681   9.979
27816SOL    HW185455   5.698   8.632  10.061
27816SOL    HW285456   5.769   8.674   9.937
27817SOL     OW85457   6.277   8.862  10.940
27817SOL    HW185458   6.202   8.814  10.979
27817SOL    HW285459   6.239   8.948  10.922
27818SOL     OW85460   7.386   7.652  10.534
27818SOL    HW185461   7.407   7.559  10.549
27818SOL    HW285462   7.405   7.660  10.438
27819SOL     OW85463   6.002   7.831   9.880
27819SOL    HW185464   6.017   7.779   9.799
27819SOL    HW285465   6.093   7.849   9.908
27820SOL     OW85466   7.307   8.936  10.407
27820SOL    HW185467   7.221   8.909  10.370
27820SOL    HW285468   7.307   8.882  10.489
27821SOL     OW85469   5.928   8.002  10.596
27821SOL    HW185470   5.981   7.940  10.651
27821SOL    HW285471   5.933   7.963  10.508
27822SOL     OW85472   6.416   9.034   9.984
27822SOL    HW185473   6.406   9.064   9.893
27822SOL    HW285474   6.332   8.989  10.001
27823SOL     OW85475   7.024   7.695  10.434
27823SOL    HW185476   7.063   7.619  10.480
27823SOL    HW285477   6.964   7.733  10.501
27824SOL     OW85478   6.600   7.454  10.451
27824SOL    HW185479   6.550   7.376  10.424
27824SOL    HW285480   6.689   7.416  10.463
27825SOL     OW85481   6.369   8.786   9.622
27825SOL    HW185482   6.338   8.694   9.625
27825SOL    HW285483   6.444   8.784   9.684
27826SOL     OW85484   6.196   9.006  10.605
27826SOL    HW185485   6.203   9.093  10.650
27826SOL    HW285486   6.278   9.006  10.554
27827SOL     OW85487   6.892   7.485   9.471
27827SOL    HW185488   6.915   7.404   9.424
27827SOL    HW285489   6.806   7.460   9.512
27828SOL     OW85490   6.888   7.914  10.000
27828SOL    HW185491   6.829   7.991   9.995
27828SOL    HW285492   6.876   7.883  10.092
27829SOL     OW85493   7.181   7.655  10.184
27829SOL    HW185494   7.113   7.674  10.250
27829SOL    HW285495   7.183   7.736  10.130
27830SOL     OW85496   5.635   8.512   9.635
27830SOL    HW185497   5.732   8.516   9.626
27830SOL    HW285498   5.621   8.415   9.639
27831SOL     OW85499   6.459   9.094   9.642
27831SOL    HW185500   6.385   9.084   9.579
27831SOL    HW285501   6.442   9.179   9.686
27832SOL     OW85502   5.821   9.902   0.111
27832SOL    HW185503   5.764   9.939   0.178
27832SOL    HW285504   5.872   9.979   0.080
27833SOL     OW85505   5.815   9.587   0.983
27833SOL    HW185506   5.837   9.567   1.076
27833SOL    HW285507   5.728   9.543   0.975
27834SOL     OW85508   5.584   9.705   0.642
27834SOL    HW185509   5.501   9.726   0.689
27834SOL    HW285510   5.562   9.622   0.599
27835SOL     OW85511   6.140  10.580   1.186
27835SOL    HW185512   6.053  10.575   1.144
27835SOL    HW285513   6.140  10.672   1.218
27836SOL     OW85514   7.147  10.830   0.721
27836SOL    HW185515   7.092  10.825   0.801
27836SOL    HW285516   7.082  10.829   0.649
27837SOL     OW85517   6.723   9.989   0.715
27837SOL    HW185518   6.760  10.075   0.685
27837SOL    HW285519   6.682  10.014   0.799
27838SOL     OW85520   7.366   9.929   0.240
27838SOL    HW185521   7.325   9.954   0.156
27838SOL    HW285522   7.307   9.859   0.272
27839SOL     OW85523   6.322  10.452   1.015
27839SOL    HW185524   6.263  10.492   1.082
27839SOL    HW285525   6.370  10.530   0.984
27840SOL     OW85526   6.460  10.105   1.807
27840SOL    HW185527   6.440  10.174   1.871
27840SOL    HW285528   6.494  10.154   1.730
27841SOL     OW85529   6.283  10.321   0.640
27841SOL    HW185530   6.341  10.303   0.716
27841SOL    HW285531   6.208  10.367   0.683
27842SOL     OW85532   6.307  10.452   1.795
27842SOL    HW185533   6.339  10.538   1.831
27842SOL    HW285534   6.223  10.479   1.753
27843SOL     OW85535   5.913  10.746   1.081
27843SOL    HW185536   5.838  10.713   1.029
27843SOL    HW285537   5.965  10.797   1.015
27844SOL     OW85538   7.071  10.808   1.374
27844SOL    HW185539   7.104  10.888   1.416
27844SOL    HW285540   6.986  10.797   1.423
27845SOL     OW85541   6.016   9.712   1.525
27845SOL    HW185542   6.090   9.650   1.519
27845SOL    HW285543   5.938   9.655   1.514
27846SOL     OW85544   7.193   9.765   0.740
27846SOL    HW185545   7.107   9.787   0.700
27846SOL    HW285546   7.207   9.843   0.796
27847SOL     OW85547   6.726  10.664   1.691
27847SOL    HW185548   6.757  10.660   1.782
27847SOL    HW285549   6.685  10.577   1.680
27848SOL     OW85550   5.848  10.768   0.532
27848SOL    HW185551   5.839  10.863   0.548
27848SOL    HW285552   5.778  10.730   0.587
27849SOL     OW85553   5.855  10.398   0.905
27849SOL    HW185554   5.854  10.327   0.970
27849SOL    HW285555   5.807  10.469   0.952
27850SOL     OW85556   6.165  10.294   0.153
27850SOL    HW185557   6.202  10.359   0.093
27850SOL    HW285558   6.205  10.321   0.239
27851SOL     OW85559   7.199   9.415   1.497
27851SOL    HW185560   7.195   9.493   1.439
27851SOL    HW285561   7.207   9.457   1.583
27852SOL     OW85562   5.700   9.960   0.564
27852SOL    HW185563   5.671   9.869   0.581
27852SOL    HW285564   5.692  10.003   0.651
27853SOL     OW85565   5.653  10.907   0.116
27853SOL    HW185566   5.630  10.817   0.146
27853SOL    HW285567   5.626  10.960   0.192
27854SOL     OW85568   7.282  10.230   0.631
27854SOL    HW185569   7.359  10.192   0.586
27854SOL    HW285570   7.250  10.293   0.564
27855SOL     OW85571   7.225  10.428   0.434
27855SOL    HW185572   7.308  10.445   0.387
27855SOL    HW285573   7.233  10.485   0.513
27856SOL     OW85574   5.714  10.051   1.582
27856SOL    HW185575   5.809  10.066   1.576
27856SOL    HW285576   5.685  10.133   1.625
27857SOL     OW85577   6.163  10.705   0.743
27857SOL    HW185578   6.138  10.611   0.750
27857SOL    HW285579   6.151  10.722   0.648
27858SOL     OW85580   6.868  10.521   1.428
27858SOL    HW185581   6.909  10.458   1.367
27858SOL    HW285582   6.926  10.516   1.506
27859SOL     OW85583   6.425   9.308   0.494
27859SOL    HW185584   6.450   9.401   0.482
27859SOL    HW285585   6.328   9.314   0.509
27860SOL     OW85586   5.766  10.291   1.250
27860SOL    HW185587   5.854  10.251   1.237
27860SOL    HW285588   5.707  10.225   1.212
27861SOL     OW85589   7.142  10.294   0.205
27861SOL    HW185590   7.064  10.244   0.234
27861SOL    HW285591   7.173  10.335   0.288
27862SOL     OW85592   5.916   9.555   1.789
27862SOL    HW185593   5.984   9.611   1.829
27862SOL    HW285594   5.837   9.581   1.839
27863SOL     OW85595   7.055  10.734   0.970
27863SOL    HW185596   6.989  10.739   1.042
27863SOL    HW285597   7.029  10.650   0.927
27864SOL     OW85598   6.182  10.020   0.274
27864SOL    HW185599   6.176  10.102   0.223
27864SOL    HW285600   6.115  10.032   0.344
27865SOL     OW85601   6.851   9.640   0.911
27865SOL    HW185602   6.762   9.608   0.937
27865SOL    HW285603   6.908   9.602   0.981
27866SOL     OW85604   7.154  10.956   0.325
27866SOL    HW185605   7.236  11.007   0.327
27866SOL    HW285606   7.131  10.959   0.230
27867SOL     OW85607   6.400   9.928   1.456
27867SOL    HW185608   6.382   9.895   1.548
27867SOL    HW285609   6.342   9.870   1.403
27868SOL     OW85610   6.982   9.796   1.672
27868SOL    HW185611   6.992   9.849   1.753
27868SOL    HW285612   7.034   9.716   1.693
27869SOL     OW85613   6.557  10.209   1.575
27869SOL    HW185614   6.595  10.123   1.546
27869SOL    HW285615   6.509  10.237   1.495
27870SOL     OW85616   6.545   9.707   1.247
27870SOL    HW185617   6.453   9.724   1.275
27870SOL    HW285618   6.534   9.664   1.162
27871SOL     OW85619   6.623   9.992   0.410
27871SOL    HW185620   6.637  10.009   0.504
27871SOL    HW285621   6.538   9.943   0.411
27872SOL     OW85622   5.680  10.117   0.790
27872SOL    HW185623   5.752  10.107   0.855
27872SOL    HW285624   5.645  10.204   0.812
27873SOL     OW85625   5.664   0.041   1.572
27873SOL    HW185626   5.699   0.016   1.660
27873SOL    HW285627   5.569   0.045   1.588
27874SOL     OW85628   6.464   9.687   0.219
27874SOL    HW185629   6.501   9.736   0.143
27874SOL    HW285630   6.482   9.594   0.194
27875SOL     OW85631   7.319   9.900   1.841
27875SOL    HW185632   7.274   9.975   1.798
27875SOL    HW285633   7.325   9.838   1.766
27876SOL     OW85634   6.948  10.458   0.568
27876SOL    HW185635   7.029  10.451   0.516
27876SOL    HW285636   6.895  10.519   0.513
27877SOL     OW85637   6.140   9.507   0.901
27877SOL    HW185638   6.152   9.532   0.995
27877SOL    HW285639   6.137   9.592   0.855
27878SOL     OW85640   6.566  10.739   0.488
27878SOL    HW185641   6.500  10.788   0.438
27878SOL    HW285642   6.548  10.769   0.579
27879SOL     OW85643   5.926   0.011   0.881
27879SOL    HW185644   5.982  11.036   0.903
27879SOL    HW285645   5.990   0.085   0.885
27880SOL     OW85646   7.377  10.400   0.887
27880SOL    HW185647   7.329  10.371   0.808
27880SOL    HW285648   7.310  10.388   0.957
27881SOL     OW85649   6.830  10.812   1.469
27881SOL    HW185650   6.807  10.771   1.554
27881SOL    HW285651   6.758  10.875   1.458
27882SOL     OW85652   5.903  10.279   0.267
27882SOL    HW185653   5.986  10.302   0.224
27882SOL    HW285654   5.868  10.212   0.206
27883SOL     OW85655   7.070  10.059   0.712
27883SOL    HW185656   7.066  10.030   0.804
27883SOL    HW285657   7.144  10.123   0.712
27884SOL     OW85658   6.065  10.561   1.718
27884SOL    HW185659   6.017  10.572   1.632
27884SOL    HW285660   5.991  10.574   1.780
27885SOL     OW85661   6.657  11.053   0.221
27885SOL    HW185662   6.625  10.992   0.289
27885SOL    HW285663   6.703  10.994   0.159
27886SOL     OW85664   5.763   9.604   1.505
27886SOL    HW185665   5.687   9.658   1.533
27886SOL    HW285666   5.749   9.523   1.556
27887SOL     OW85667   7.225  10.705   0.073
27887SOL    HW185668   7.175  10.788   0.071
27887SOL    HW285669   7.164  10.641   0.034
27888SOL     OW85670   6.981   9.408   0.447
27888SOL    HW185671   6.979   9.373   0.356
27888SOL    HW285672   7.074   9.434   0.457
27889SOL     OW85673   5.999   9.987   0.474
27889SOL    HW185674   6.011   9.890   0.490
27889SOL    HW285675   5.906   9.997   0.501
27890SOL     OW85676   7.120   9.570   1.727
27890SOL    HW185677   7.120   9.572   1.826
27890SOL    HW285678   7.063   9.494   1.711
27891SOL     OW85679   6.215   9.404   0.116
27891SOL    HW185680   6.309   9.401   0.141
27891SOL    HW285681   6.220   9.427   0.023
27892SOL     OW85682   6.355   9.568   1.733
27892SOL    HW185683   6.434   9.511   1.747
27892SOL    HW285684   6.305   9.554   1.814
27893SOL     OW85685   6.468  10.828   1.181
27893SOL    HW185686   6.455  10.789   1.092
27893SOL    HW285687   6.537  10.771   1.220
27894SOL     OW85688   6.929   9.900   1.429
27894SOL    HW185689   6.961   9.875   1.518
27894SOL    HW285690   6.979   9.981   1.409
27895SOL     OW85691   6.421  10.709   0.942
27895SOL    HW185692   6.508  10.700   0.900
27895SOL    HW285693   6.362  10.715   0.866
27896SOL     OW85694   6.531   9.829   0.905
27896SOL    HW185695   6.508   9.809   0.812
27896SOL    HW285696   6.556   9.741   0.938
27897SOL     OW85697   6.154   9.347   0.506
27897SOL    HW185698   6.076   9.360   0.563
27897SOL    HW285699   6.146   9.426   0.448
27898SOL     OW85700   7.033  10.504   0.010
27898SOL    HW185701   7.084  10.439   0.061
27898SOL    HW285702   6.949  10.506   0.057
27899SOL     OW85703   5.867   9.375   0.199
27899SOL    HW185704   5.905   9.424   0.123
27899SOL    HW285705   5.938   9.312   0.219
27900SOL     OW85706   6.526   9.561   0.470
27900SOL    HW185707   6.505   9.608   0.388
27900SOL    HW285708   6.622   9.575   0.477
27901SOL     OW85709   6.679   9.989   1.475
27901SOL    HW185710   6.621   9.912   1.472
27901SOL    HW285711   6.768   9.951   1.468
27902SOL     OW85712   6.821  10.888   0.803
27902SOL    HW185713   6.782  10.967   0.765
27902SOL    HW285714   6.852  10.921   0.888
27903SOL     OW85715   6.065  10.450   0.735
27903SOL    HW185716   5.994  10.427   0.799
27903SOL    HW285717   6.019  10.435   0.651
27904SOL     OW85718   6.570   9.815   0.017
27904SOL    HW185719   6.560   9.912   0.018
27904SOL    HW285720   6.666   9.805   0.016
27905SOL     OW85721   5.653   9.864   1.399
27905SOL    HW185722   5.747   9.852   1.380
27905SOL    HW285723   5.654   9.945   1.454
27906SOL     OW85724   6.146   9.558   1.178
27906SOL    HW185725   6.192   9.488   1.227
27906SOL    HW285726   6.053   9.540   1.203
27907SOL     OW85727   6.467   9.752   0.656
27907SOL    HW185728   6.419   9.807   0.592
27907SOL    HW285729   6.485   9.673   0.601
27908SOL     OW85730   6.590   9.393   0.771
27908SOL    HW185731   6.552   9.376   0.683
27908SOL    HW285732   6.572   9.310   0.818
27909SOL     OW85733   7.005  10.494   0.865
27909SOL    HW185734   6.933  10.432   0.882
27909SOL    HW285735   7.012  10.487   0.768
27910SOL     OW85736   7.062   9.903   0.984
27910SOL    HW185737   7.011   9.821   0.991
27910SOL    HW285738   7.127   9.896   1.056
27911SOL     OW85739   7.442  10.150   0.387
27911SOL    HW185740   7.493  10.086   0.439
27911SOL    HW285741   7.411  10.093   0.315
27912SOL     OW85742   6.070  10.747   0.142
27912SOL    HW185743   5.994  10.719   0.197
27912SOL    HW285744   6.064  10.687   0.066
27913SOL     OW85745   7.247  10.570   0.654
27913SOL    HW185746   7.340  10.593   0.673
27913SOL    HW285747   7.202  10.653   0.678
27914SOL     OW85748   6.968   9.913   0.085
27914SOL    HW185749   6.924   9.880   0.166
27914SOL    HW285750   7.026   9.840   0.062
27915SOL     OW85751   6.104   9.534   0.323
27915SOL    HW185752   6.136   9.483   0.247
27915SOL    HW285753   6.085   9.620   0.281
27916SOL     OW85754   7.332  10.533   1.582
27916SOL    HW185755   7.423  10.517   1.552
27916SOL    HW285756   7.336  10.627   1.605
27917SOL     OW85757   6.646  10.657   1.306
27917SOL    HW185758   6.567  10.641   1.359
27917SOL    HW285759   6.718  10.627   1.365
27918SOL     OW85760   7.185  10.973   1.657
27918SOL    HW185761   7.181  11.039   1.586
27918SOL    HW285762   7.267  10.924   1.638
27919SOL     OW85763   6.689  10.501   1.093
27919SOL    HW185764   6.660  10.556   1.168
27919SOL    HW285765   6.669  10.559   1.018
27920SOL     OW85766   7.180  10.398   1.071
27920SOL    HW185767   7.182  10.463   1.144
27920SOL    HW285768   7.121  10.442   1.008
27921SOL     OW85769   6.510   9.407   1.410
27921SOL    HW185770   6.537   9.392   1.317
27921SOL    HW285771   6.588   9.453   1.446
27922SOL     OW85772   6.591  10.433   1.742
27922SOL    HW185773   6.498  10.454   1.760
27922SOL    HW285774   6.583  10.360   1.677
27923SOL     OW85775   6.302  10.378   0.372
27923SOL    HW185776   6.292  10.355   0.467
27923SOL    HW285777   6.389  10.338   0.349
27924SOL     OW85778   6.003  10.126   1.259
27924SOL    HW185779   6.076  10.124   1.325
27924SOL    HW285780   5.965  10.038   1.269
27925SOL     OW85781   6.871   9.689   1.271
27925SOL    HW185782   6.893   9.765   1.328
27925SOL    HW285783   6.783   9.713   1.238
27926SOL     OW85784   5.634  10.878   1.345
27926SOL    HW185785   5.610  10.953   1.289
27926SOL    HW285786   5.731  10.882   1.347
27927SOL     OW85787   5.936  10.406   0.505
27927SOL    HW185788   5.940  10.488   0.454
27927SOL    HW285789   5.922  10.340   0.434
27928SOL     OW85790   6.128   9.852   0.850
27928SOL    HW185791   6.141   9.919   0.778
27928SOL    HW285792   6.202   9.873   0.909
27929SOL     OW85793   6.820  10.651   0.407
27929SOL    HW185794   6.878  10.724   0.438
27929SOL    HW285795   6.732  10.682   0.436
27930SOL     OW85796   6.881  10.762   1.175
27930SOL    HW185797   6.937  10.782   1.252
27930SOL    HW285798   6.807  10.713   1.215
27931SOL     OW85799   7.159   9.927   0.480
27931SOL    HW185800   7.113   9.974   0.552
27931SOL    HW285801   7.187  10.001   0.424
27932SOL     OW85802   5.912  10.831   1.332
27932SOL    HW185803   5.903  10.797   1.240
27932SOL    HW285804   6.008  10.847   1.333
27933SOL     OW85805   6.007  10.045   1.607
27933SOL    HW185806   6.075  10.087   1.551
27933SOL    HW285807   6.034   9.952   1.602
27934SOL     OW85808   7.209  10.089   1.687
27934SOL    HW185809   7.116  10.120   1.684
27934SOL    HW285810   7.245  10.128   1.604
27935SOL     OW85811   6.576   9.419   1.754
27935SOL    HW185812   6.632   9.496   1.736
27935SOL    HW285813   6.631   9.348   1.717
27936SOL     OW85814   6.080   9.332   1.752
27936SOL    HW185815   6.040   9.270   1.690
27936SOL    HW285816   6.016   9.405   1.751
27937SOL     OW85817   6.176  10.195   1.030
27937SOL    HW185818   6.208  10.286   1.038
27937SOL    HW285819   6.131  10.179   1.115
27938SOL     OW85820   6.948  10.189   0.995
27938SOL    HW185821   6.866  10.151   0.961
27938SOL    HW285822   6.994  10.110   1.026
27939SOL     OW85823   6.827   9.826   0.296
27939SOL    HW185824   6.825   9.753   0.359
27939SOL    HW285825   6.759   9.885   0.332
27940SOL     OW85826   5.886   9.512   1.242
27940SOL    HW185827   5.840   9.540   1.323
27940SOL    HW285828   5.867   9.415   1.242
27941SOL     OW85829   5.610  10.613   1.272
27941SOL    HW185830   5.654  10.563   1.342
27941SOL    HW285831   5.606  10.703   1.308
27942SOL     OW85832   6.306   9.952   1.053
27942SOL    HW185833   6.388   9.935   1.002
27942SOL    HW285834   6.280  10.043   1.027
27943SOL     OW85835   7.339  10.267   1.839
27943SOL    HW185836   7.294  10.194   1.792
27943SOL    HW285837   7.273  10.291   1.905
27944SOL     OW85838   5.908   9.381   0.619
27944SOL    HW185839   5.881   9.470   0.648
27944SOL    HW285840   5.897   9.329   0.701
27945SOL     OW85841   7.191   9.676   0.365
27945SOL    HW185842   7.228   9.614   0.431
27945SOL    HW285843   7.172   9.755   0.419
27946SOL     OW85844   6.640  10.064   0.979
27946SOL    HW185845   6.621  10.073   1.075
27946SOL    HW285846   6.610   9.973   0.960
27947SOL     OW85847   6.548  10.857   1.677
27947SOL    HW185848   6.613  10.930   1.664
27947SOL    HW285849   6.606  10.779   1.667
27948SOL     OW85850   7.425  10.830   1.598
27948SOL    HW185851   7.453  10.856   1.508
27948SOL    HW285852   7.508  10.836   1.648
27949SOL     OW85853   5.931  10.204   1.806
27949SOL    HW185854   6.014  10.232   1.847
27949SOL    HW285855   5.961  10.134   1.744
27950SOL     OW85856   7.114   9.586   0.110
27950SOL    HW185857   7.044   9.529   0.144
27950SOL    HW285858   7.157   9.616   0.191
27951SOL     OW85859   6.869  10.156   0.028
27951SOL    HW185860   6.911  10.071   0.053
27951SOL    HW285861   6.884  10.157  11.035
27952SOL     OW85862   6.667  10.647   0.850
27952SOL    HW185863   6.675  10.566   0.796
27952SOL    HW285864   6.738  10.705   0.819
27953SOL     OW85865   5.864  10.112   0.990
27953SOL    HW185866   5.953  10.139   0.961
27953SOL    HW285867   5.882  10.022   1.022
27954SOL     OW85868   5.919   9.840   1.009
27954SOL    HW185869   5.884   9.752   0.986
27954SOL    HW285870   5.989   9.850   0.941
27955SOL     OW85871   6.742   9.679   1.694
27955SOL    HW185872   6.697   9.737   1.759
27955SOL    HW285873   6.830   9.722   1.690
27956SOL     OW85874   6.754   9.513   1.478
27956SOL    HW185875   6.752   9.577   1.552
27956SOL    HW285876   6.798   9.565   1.408
27957SOL     OW85877   5.584  10.666   0.218
27957SOL    HW185878   5.499  10.678   0.171
27957SOL    HW285879   5.594  10.569   0.214
27958SOL     OW85880   6.087  10.897   0.921
27958SOL    HW185881   6.166  10.951   0.932
27958SOL    HW285882   6.117  10.833   0.853
27959SOL     OW85883   6.564  10.077   1.242
27959SOL    HW185884   6.615  10.042   1.317
27959SOL    HW285885   6.474  10.051   1.267
27960SOL     OW85886   5.621   9.844   1.112
27960SOL    HW185887   5.704   9.833   1.062
27960SOL    HW285888   5.653   9.855   1.202
27961SOL     OW85889   5.800   9.831   1.720
27961SOL    HW185890   5.856   9.783   1.658
27961SOL    HW285891   5.752   9.894   1.663
27962SOL     OW85892   6.966  10.193   1.643
27962SOL    HW185893   6.990  10.288   1.646
27962SOL    HW285894   6.946  10.180   1.549
27963SOL     OW85895   6.379   9.868   0.400
27963SOL    HW185896   6.398   9.797   0.335
27963SOL    HW285897   6.310   9.919   0.353
27964SOL     OW85898   7.230   9.933   1.204
27964SOL    HW185899   7.202   9.869   1.270
27964SOL    HW285900   7.310   9.892   1.167
27965SOL     OW85901   5.801  10.837   1.733
27965SOL    HW185902   5.789  10.908   1.797
27965SOL    HW285903   5.823  10.761   1.789
27966SOL     OW85904   6.259   9.792   1.270
27966SOL    HW185905   6.215   9.713   1.235
27966SOL    HW285906   6.265   9.851   1.192
27967SOL     OW85907   6.049   9.780   0.208
27967SOL    HW185908   6.105   9.859   0.220
27967SOL    HW285909   5.966   9.820   0.178
27968SOL     OW85910   5.700  10.443   1.466
27968SOL    HW185911   5.717  10.388   1.545
27968SOL    HW285912   5.724  10.382   1.393
27969SOL     OW85913   6.907  10.329   1.231
27969SOL    HW185914   6.934  10.291   1.145
27969SOL    HW285915   6.828  10.378   1.205
27970SOL     OW85916   6.897  10.186   0.305
27970SOL    HW185917   6.819  10.144   0.343
27970SOL    HW285918   6.880  10.183   0.210
27971SOL     OW85919   7.367  11.028   1.150
27971SOL    HW185920   7.406  11.065   1.069
27971SOL    HW285921   7.345  10.936   1.124
27972SOL     OW85922   6.838  11.018   1.080
27972SOL    HW185923   6.928  11.043   1.053
27972SOL    HW285924   6.851  10.929   1.117
27973SOL     OW85925   5.692  10.578   1.017
27973SOL    HW185926   5.656  10.591   1.107
27973SOL    HW285927   5.620  10.528   0.974
27974SOL     OW85928   6.263  10.949   1.735
27974SOL    HW185929   6.214  11.032   1.724
27974SOL    HW285930   6.351  10.971   1.700
27975SOL     OW85931   6.502   9.423   0.160
27975SOL    HW185932   6.548   9.402   0.078
27975SOL    HW285933   6.540   9.353   0.217
27976SOL     OW85934   7.280   9.458   0.513
27976SOL    HW185935   7.352   9.442   0.449
27976SOL    HW285936   7.271   9.371   0.556
27977SOL     OW85937   6.973  10.862   0.495
27977SOL    HW185938   7.046  10.877   0.432
27977SOL    HW285939   6.934  10.951   0.499
27978SOL     OW85940   5.742   0.005   1.833
27978SOL    HW185941   5.692  11.038   1.882
27978SOL    HW285942   5.791   0.045   1.906
27979SOL     OW85943   6.850  10.210   0.635
27979SOL    HW185944   6.931  10.162   0.656
27979SOL    HW285945   6.885  10.296   0.605
27980SOL     OW85946   6.383  10.584   1.414
27980SOL    HW185947   6.358  10.636   1.494
27980SOL    HW285948   6.303  10.597   1.360
27981SOL     OW85949   6.281  10.907   0.159
27981SOL    HW185950   6.270  10.927   0.066
27981SOL    HW285951   6.204  10.848   0.176
27982SOL     OW85952   7.429   9.471   0.976
27982SOL    HW185953   7.448   9.385   0.934
27982SOL    HW285954   7.343   9.497   0.936
27983SOL     OW85955   5.840   9.633   0.703
27983SOL    HW185956   5.753   9.673   0.684
27983SOL    HW285957   5.845   9.639   0.800
27984SOL     OW85958   6.805  10.905   0.040
27984SOL    HW185959   6.814  10.812   0.067
27984SOL    HW285960   6.734  10.898  11.074
27985SOL     OW85961   6.412  10.320   1.364
27985SOL    HW185962   6.456  10.319   1.278
27985SOL    HW285963   6.407  10.415   1.386
27986SOL     OW85964   6.517  10.251   0.290
27986SOL    HW185965   6.568  10.270   0.209
27986SOL    HW285966   6.543  10.160   0.310
27987SOL     OW85967   7.091  10.939   0.062
27987SOL    HW185968   6.996  10.924   0.052
27987SOL    HW285969   7.122  10.962  11.075
27988SOL     OW85970   5.932  10.590   1.493
27988SOL    HW185971   5.916  10.671   1.442
27988SOL    HW285972   5.852  10.537   1.476
27989SOL     OW85973   7.187  10.596   1.270
27989SOL    HW185974   7.230  10.577   1.354
27989SOL    HW285975   7.136  10.676   1.294
27990SOL     OW85976   6.637  10.404   0.735
27990SOL    HW185977   6.562  10.350   0.766
27990SOL    HW285978   6.681  10.346   0.672
27991SOL     OW85979   6.612   9.543   0.990
27991SOL    HW185980   6.597   9.502   0.903
27991SOL    HW285981   6.611   9.465   1.048
27992SOL     OW85982   6.193  10.810   0.484
27992SOL    HW185983   6.233  10.763   0.408
27992SOL    HW285984   6.143  10.880   0.440
27993SOL     OW85985   7.284   9.688   1.381
27993SOL    HW185986   7.348   9.761   1.377
27993SOL    HW285987   7.326   9.622   1.321
27994SOL     OW85988   5.852  10.675   0.284
27994SOL    HW185989   5.756  10.674   0.270
27994SOL    HW285990   5.858  10.713   0.374
27995SOL     OW85991   5.713  10.308   1.691
27995SOL    HW185992   5.639  10.305   1.755
27995SOL    HW285993   5.789  10.275   1.744
27996SOL     OW85994   6.265   9.497   1.483
27996SOL    HW185995   6.352   9.461   1.454
27996SOL    HW285996   6.289   9.537   1.569
27997SOL     OW85997   5.707   9.660   0.012
27997SOL    HW185998   5.622   9.648  11.067
27997SOL    HW285999   5.714   9.756   0.022
27998SOL     OW86000   7.039  10.150   1.373
27998SOL    HW186001   6.981  10.214   1.326
27998SOL    HW286002   7.126  10.186   1.348
27999SOL     OW86003   5.638   9.467   0.322
27999SOL    HW186004   5.638   9.547   0.268
27999SOL    HW286005   5.729   9.434   0.303
28000SOL     OW86006   6.765  10.636   0.132
28000SOL    HW186007   6.673  10.610   0.122
28000SOL    HW286008   6.783  10.621   0.226
28001SOL     OW86009   6.213  10.122   1.423
28001SOL    HW186010   6.267  10.202   1.411
28001SOL    HW286011   6.283  10.056   1.438
28002SOL     OW86012   7.084  11.069   0.976
28002SOL    HW186013   7.121   0.004   0.895
28002SOL    HW286014   7.161  11.060   1.033
28003SOL     OW86015   6.331   9.851   1.696
28003SOL    HW186016   6.349   9.909   1.771
28003SOL    HW286017   6.331   9.762   1.735
28004SOL     OW86018   7.067  10.449   1.636
28004SOL    HW186019   7.043  10.479   1.726
28004SOL    HW286020   7.160  10.477   1.631
28005SOL     OW86021   7.275  10.198   1.231
28005SOL    HW186022   7.254  10.105   1.207
28005SOL    HW286023   7.235  10.250   1.158
28006SOL     OW86024   6.802   9.637   0.486
28006SOL    HW186025   6.862   9.562   0.470
28006SOL    HW286026   6.846   9.685   0.559
28007SOL     OW86027   6.168  10.047   0.676
28007SOL    HW186028   6.213  10.131   0.658
28007SOL    HW286029   6.110  10.036   0.598
28008SOL     OW86030   7.351   9.682   1.641
28008SOL    HW186031   7.318   9.693   1.550
28008SOL    HW286032   7.276   9.636   1.682
28009SOL     OW86033   7.334  10.231   1.496
28009SOL    HW186034   7.331  10.328   1.500
28009SOL    HW286035   7.323  10.216   1.399
28010SOL     OW86036   6.456  10.680   0.052
28010SOL    HW186037   6.392  10.681   0.124
28010SOL    HW286038   6.467  10.774   0.032
28011SOL     OW86039   6.454  10.248   0.852
28011SOL    HW186040   6.515  10.189   0.899
28011SOL    HW286041   6.422  10.305   0.923
28012SOL     OW86042   6.632  10.311   0.053
28012SOL    HW186043   6.625  10.325  11.059
28012SOL    HW286044   6.717  10.264   0.060
28013SOL     OW86045   7.429  10.854   0.824
28013SOL    HW186046   7.339  10.848   0.790
28013SOL    HW286047   7.423  10.813   0.911
28014SOL     OW86048   5.840  10.615   1.873
28014SOL    HW186049   5.762  10.569   1.839
28014SOL    HW286050   5.824  10.612   1.969
28015SOL     OW86051   5.673  10.564   0.647
28015SOL    HW186052   5.709  10.519   0.724
28015SOL    HW286053   5.715  10.517   0.573
28016SOL     OW86054   6.253  10.714   1.607
28016SOL    HW186055   6.188  10.659   1.653
28016SOL    HW286056   6.245  10.800   1.653
28017SOL     OW86057   7.408   9.480   1.236
28017SOL    HW186058   7.411   9.384   1.241
28017SOL    HW286059   7.422   9.493   1.139
28018SOL     OW86060   6.034   9.719   0.524
28018SOL    HW186061   6.061   9.645   0.468
28018SOL    HW286062   5.974   9.679   0.590
28019SOL     OW86063   7.301  10.779   1.069
28019SOL    HW186064   7.215  10.767   1.025
28019SOL    HW286065   7.291  10.720   1.145
28020SOL     OW86066   5.918   9.850   1.287
28020SOL    HW186067   5.988   9.808   1.341
28020SOL    HW286068   5.939   9.819   1.197
28021SOL     OW86069   6.401  10.882   0.681
28021SOL    HW186070   6.404  10.963   0.626
28021SOL    HW286071   6.310  10.852   0.670
28022SOL     OW86072   7.025   9.553   1.093
28022SOL    HW186073   7.052   9.473   1.138
28022SOL    HW286074   6.975   9.600   1.163
28023SOL     OW86075   6.602   9.318   1.159
28023SOL    HW186076   6.544   9.246   1.129
28023SOL    HW286077   6.690   9.275   1.156
28024SOL     OW86078   6.339  10.641   0.310
28024SOL    HW186079   6.283  10.562   0.310
28024SOL    HW286080   6.413  10.608   0.362
28025SOL     OW86081   6.182  10.858   1.263
28025SOL    HW186082   6.195  10.938   1.315
28025SOL    HW286083   6.273  10.840   1.234
28026SOL     OW86084   6.906   9.337   0.174
28026SOL    HW186085   6.921   9.311   0.083
28026SOL    HW286086   6.817   9.298   0.191
28027SOL     OW86087   6.909   9.791   0.701
28027SOL    HW186088   6.841   9.861   0.702
28027SOL    HW286089   6.884   9.740   0.782
28028SOL     OW86090   7.188   9.517   0.868
28028SOL    HW186091   7.114   9.531   0.929
28028SOL    HW286092   7.180   9.593   0.808
28029SOL     OW86093   5.628  10.404   0.275
28029SOL    HW186094   5.715  10.396   0.234
28029SOL    HW286095   5.612  10.312   0.300
28030SOL     OW86096   5.822   9.952   1.991
28030SOL    HW186097   5.732   9.935   2.022
28030SOL    HW286098   5.820   9.928   1.897
28031SOL     OW86099   5.799   9.609   2.870
28031SOL    HW186100   5.827   9.573   2.956
28031SOL    HW286101   5.720   9.554   2.851
28032SOL     OW86102   5.594   9.717   2.489
28032SOL    HW186103   5.506   9.733   2.528
28032SOL    HW286104   5.586   9.627   2.454
28033SOL     OW86105   6.150  10.590   3.056
28033SOL    HW186106   6.064  10.588   3.012
28033SOL    HW286107   6.153  10.682   3.088
28034SOL     OW86108   7.158  10.844   2.584
28034SOL    HW186109   7.103  10.820   2.661
28034SOL    HW286110   7.095  10.840   2.510
28035SOL     OW86111   6.716   9.987   2.565
28035SOL    HW186112   6.745  10.077   2.542
28035SOL    HW286113   6.668  10.003   2.648
28036SOL     OW86114   7.366   9.919   2.103
28036SOL    HW186115   7.344   9.914   2.008
28036SOL    HW286116   7.313   9.846   2.139
28037SOL     OW86117   6.316  10.464   2.870
28037SOL    HW186118   6.262  10.503   2.940
28037SOL    HW286119   6.361  10.543   2.835
28038SOL     OW86120   6.466  10.068   3.671
28038SOL    HW186121   6.436  10.132   3.736
28038SOL    HW286122   6.483  10.124   3.592
28039SOL     OW86123   6.273  10.329   2.519
28039SOL    HW186124   6.338  10.311   2.589
28039SOL    HW286125   6.206  10.380   2.568
28040SOL     OW86126   6.304  10.447   3.657
28040SOL    HW186127   6.338  10.534   3.688
28040SOL    HW286128   6.220  10.473   3.616
28041SOL     OW86129   5.915  10.756   2.938
28041SOL    HW186130   5.842  10.721   2.884
28041SOL    HW286131   5.968  10.807   2.873
28042SOL     OW86132   7.054  10.802   3.249
28042SOL    HW186133   7.054  10.897   3.265
28042SOL    HW286134   6.991  10.770   3.315
28043SOL     OW86135   6.024   9.701   3.395
28043SOL    HW186136   6.106   9.652   3.383
28043SOL    HW286137   5.959   9.643   3.352
28044SOL     OW86138   7.189   9.761   2.588
28044SOL    HW186139   7.114   9.786   2.531
28044SOL    HW286140   7.185   9.831   2.654
28045SOL     OW86141   6.733  10.652   3.527
28045SOL    HW186142   6.782  10.650   3.610
28045SOL    HW286143   6.680  10.570   3.534
28046SOL     OW86144   5.828  10.764   2.378
28046SOL    HW186145   5.842  10.852   2.414
28046SOL    HW286146   5.773  10.720   2.445
28047SOL     OW86147   5.854  10.398   2.765
28047SOL    HW186148   5.851  10.326   2.829
28047SOL    HW286149   5.806  10.469   2.812
28048SOL     OW86150   6.152  10.306   1.975
28048SOL    HW186151   6.207  10.348   1.905
28048SOL    HW286152   6.195  10.341   2.056
28049SOL     OW86153   7.183   9.462   3.415
28049SOL    HW186154   7.152   9.511   3.338
28049SOL    HW286155   7.279   9.472   3.408
28050SOL     OW86156   5.701   9.970   2.428
28050SOL    HW186157   5.676   9.877   2.439
28050SOL    HW286158   5.697  10.005   2.519
28051SOL     OW86159   5.645  10.906   1.984
28051SOL    HW186160   5.633  10.810   1.997
28051SOL    HW286161   5.588  10.943   2.051
28052SOL     OW86162   7.269  10.232   2.497
28052SOL    HW186163   7.339  10.193   2.442
28052SOL    HW286164   7.224  10.289   2.434
28053SOL     OW86165   7.230  10.427   2.302
28053SOL    HW186166   7.322  10.422   2.272
28053SOL    HW286167   7.238  10.485   2.381
28054SOL     OW86168   5.714  10.055   3.445
28054SOL    HW186169   5.806  10.086   3.452
28054SOL    HW286170   5.666  10.132   3.478
28055SOL     OW86171   6.176  10.709   2.621
28055SOL    HW186172   6.144  10.617   2.631
28055SOL    HW286173   6.170  10.718   2.524
28056SOL     OW86174   6.887  10.552   3.283
28056SOL    HW186175   6.911  10.481   3.221
28056SOL    HW286176   6.937  10.529   3.363
28057SOL     OW86177   5.773  10.294   3.114
28057SOL    HW186178   5.863  10.257   3.103
28057SOL    HW286179   5.717  10.225   3.077
28058SOL     OW86180   7.137  10.283   2.053
28058SOL    HW186181   7.054  10.238   2.077
28058SOL    HW286182   7.166  10.319   2.138
28059SOL     OW86183   6.775   0.001   3.488
28059SOL    HW186184   6.783   0.072   3.421
28059SOL    HW286185   6.798  11.023   3.436
28060SOL     OW86186   5.928   9.541   3.632
28060SOL    HW186187   5.989   9.607   3.668
28060SOL    HW286188   5.842   9.571   3.664
28061SOL     OW86189   7.055  10.736   2.823
28061SOL    HW186190   6.991  10.744   2.896
28061SOL    HW286191   7.032  10.648   2.786
28062SOL     OW86192   6.177  10.028   2.119
28062SOL    HW186193   6.180  10.113   2.074
28062SOL    HW286194   6.107  10.042   2.185
28063SOL     OW86195   6.854   9.663   2.797
28063SOL    HW186196   6.767   9.620   2.810
28063SOL    HW286197   6.912   9.614   2.858
28064SOL     OW86198   7.163  10.948   2.171
28064SOL    HW186199   7.206  11.031   2.195
28064SOL    HW286200   7.153  10.956   2.074
28065SOL     OW86201   6.396   9.915   3.331
28065SOL    HW186202   6.370   9.884   3.420
28065SOL    HW286203   6.338   9.861   3.273
28066SOL     OW86204   7.011   9.760   3.554
28066SOL    HW186205   7.000   9.804   3.641
28066SOL    HW286206   7.089   9.807   3.522
28067SOL     OW86207   6.537  10.205   3.442
28067SOL    HW186208   6.581  10.122   3.412
28067SOL    HW286209   6.503  10.241   3.358
28068SOL     OW86210   6.557   9.712   3.103
28068SOL    HW186211   6.468   9.722   3.138
28068SOL    HW286212   6.541   9.671   3.016
28069SOL     OW86213   6.631   9.990   2.272
28069SOL    HW186214   6.645  10.001   2.367
28069SOL    HW286215   6.544   9.944   2.269
28070SOL     OW86216   5.684  10.117   2.667
28070SOL    HW186217   5.762  10.122   2.724
28070SOL    HW286218   5.642  10.203   2.682
28071SOL     OW86219   5.652   0.062   3.447
28071SOL    HW186220   5.690   0.030   3.532
28071SOL    HW286221   5.557   0.055   3.461
28072SOL     OW86222   6.447   9.708   2.039
28072SOL    HW186223   6.507   9.752   1.978
28072SOL    HW286224   6.495   9.628   2.062
28073SOL     OW86225   7.304   9.875   3.699
28073SOL    HW186226   7.269   9.956   3.657
28073SOL    HW286227   7.354   9.837   3.625
28074SOL     OW86228   6.954  10.468   2.425
28074SOL    HW186229   7.030  10.469   2.366
28074SOL    HW286230   6.889  10.518   2.373
28075SOL     OW86231   6.136   9.487   2.755
28075SOL    HW186232   6.147   9.514   2.848
28075SOL    HW286233   6.140   9.570   2.707
28076SOL     OW86234   6.560  10.761   2.361
28076SOL    HW186235   6.493  10.807   2.309
28076SOL    HW286236   6.540  10.790   2.451
28077SOL     OW86237   5.931   0.008   2.738
28077SOL    HW186238   5.985  11.032   2.762
28077SOL    HW286239   5.996   0.082   2.741
28078SOL     OW86240   7.381  10.380   2.737
28078SOL    HW186241   7.334  10.366   2.653
28078SOL    HW286242   7.309  10.370   2.801
28079SOL     OW86243   6.792  10.867   3.355
28079SOL    HW186244   6.790  10.787   3.410
28079SOL    HW286245   6.735  10.840   3.281
28080SOL     OW86246   5.892  10.256   2.113
28080SOL    HW186247   5.973  10.282   2.066
28080SOL    HW286248   5.863  10.179   2.062
28081SOL     OW86249   7.059  10.062   2.590
28081SOL    HW186250   7.054  10.029   2.681
28081SOL    HW286251   7.139  10.118   2.590
28082SOL     OW86252   6.067  10.554   3.579
28082SOL    HW186253   6.017  10.567   3.495
28082SOL    HW286254   5.996  10.567   3.644
28083SOL     OW86255   6.658  11.077   2.113
28083SOL    HW186256   6.597  11.016   2.154
28083SOL    HW286257   6.687  11.028   2.034
28084SOL     OW86258   5.750   9.595   3.356
28084SOL    HW186259   5.747   9.687   3.389
28084SOL    HW286260   5.790   9.546   3.429
28085SOL     OW86261   7.208  10.700   1.950
28085SOL    HW186262   7.161  10.784   1.940
28085SOL    HW286263   7.141  10.636   1.920
28086SOL     OW86264   6.984   9.432   2.312
28086SOL    HW186265   6.968   9.394   2.223
28086SOL    HW286266   7.081   9.434   2.316
28087SOL     OW86267   5.970  10.025   2.329
28087SOL    HW186268   5.992   9.931   2.347
28087SOL    HW286269   5.873  10.021   2.340
28088SOL     OW86270   6.210   9.444   1.955
28088SOL    HW186271   6.281   9.388   1.988
28088SOL    HW286272   6.167   9.389   1.886
28089SOL     OW86273   6.359   9.566   3.595
28089SOL    HW186274   6.438   9.512   3.614
28089SOL    HW286275   6.303   9.547   3.672
28090SOL     OW86276   6.471  10.830   3.042
28090SOL    HW186277   6.465  10.791   2.953
28090SOL    HW286278   6.539  10.777   3.086
28091SOL     OW86279   6.913   9.895   3.304
28091SOL    HW186280   6.962   9.871   3.384
28091SOL    HW286281   6.958   9.975   3.272
28092SOL     OW86282   6.427  10.706   2.799
28092SOL    HW186283   6.514  10.691   2.756
28092SOL    HW286284   6.371  10.729   2.724
28093SOL     OW86285   6.521   9.830   2.767
28093SOL    HW186286   6.491   9.824   2.673
28093SOL    HW286287   6.550   9.739   2.783
28094SOL     OW86288   6.111   9.349   2.361
28094SOL    HW186289   6.041   9.375   2.422
28094SOL    HW286290   6.127   9.431   2.310
28095SOL     OW86291   7.027  10.503   1.900
28095SOL    HW186292   7.056  10.430   1.957
28095SOL    HW286293   6.935  10.515   1.926
28096SOL     OW86294   5.869   9.353   2.057
28096SOL    HW186295   5.933   9.424   2.045
28096SOL    HW286296   5.927   9.283   2.094
28097SOL     OW86297   6.514   9.598   2.351
28097SOL    HW186298   6.471   9.510   2.349
28097SOL    HW286299   6.607   9.574   2.351
28098SOL     OW86300   6.665   9.989   3.339
28098SOL    HW186301   6.604   9.913   3.334
28098SOL    HW286302   6.753   9.947   3.336
28099SOL     OW86303   6.827  10.880   2.662
28099SOL    HW186304   6.781  10.958   2.628
28099SOL    HW286305   6.885  10.918   2.729
28100SOL     OW86306   6.053  10.471   2.600
28100SOL    HW186307   5.980  10.443   2.659
28100SOL    HW286308   6.021  10.443   2.512
28101SOL     OW86309   6.655   9.870   1.869
28101SOL    HW186310   6.605   9.953   1.861
28101SOL    HW286311   6.706   9.881   1.951
28102SOL     OW86312   5.663   9.864   3.267
28102SOL    HW186313   5.757   9.853   3.241
28102SOL    HW286314   5.665   9.948   3.317
28103SOL     OW86315   6.157   9.537   3.020
28103SOL    HW186316   6.198   9.456   3.052
28103SOL    HW286317   6.066   9.528   3.053
28104SOL     OW86318   6.452   9.794   2.518
28104SOL    HW186319   6.397   9.841   2.453
28104SOL    HW286320   6.485   9.719   2.464
28105SOL     OW86321   6.639   9.375   2.632
28105SOL    HW186322   6.583   9.366   2.552
28105SOL    HW286323   6.606   9.299   2.684
28106SOL     OW86324   7.010  10.484   2.741
28106SOL    HW186325   6.934  10.425   2.750
28106SOL    HW286326   7.024  10.484   2.645
28107SOL     OW86327   7.041   9.905   2.860
28107SOL    HW186328   6.999   9.818   2.853
28107SOL    HW286329   7.115   9.890   2.921
28108SOL     OW86330   7.428  10.138   2.259
28108SOL    HW186331   7.480  10.078   2.316
28108SOL    HW286332   7.404  10.077   2.187
28109SOL     OW86333   6.070  10.738   2.068
28109SOL    HW186334   5.987  10.703   2.107
28109SOL    HW286335   6.073  10.686   1.987
28110SOL     OW86336   7.266  10.573   2.524
28110SOL    HW186337   7.362  10.588   2.529
28110SOL    HW286338   7.231  10.661   2.544
28111SOL     OW86339   6.990   9.891   1.936
28111SOL    HW186340   6.931   9.872   2.012
28111SOL    HW286341   7.057   9.822   1.948
28112SOL     OW86342   6.106   9.551   2.179
28112SOL    HW186343   6.155   9.518   2.101
28112SOL    HW286344   6.076   9.638   2.146
28113SOL     OW86345   7.323  10.513   3.456
28113SOL    HW186346   7.416  10.486   3.461
28113SOL    HW286347   7.330  10.609   3.462
28114SOL     OW86348   6.638  10.683   3.211
28114SOL    HW186349   6.553  10.651   3.245
28114SOL    HW286350   6.703  10.626   3.257
28115SOL     OW86351   7.169  10.970   3.506
28115SOL    HW186352   7.175  11.038   3.436
28115SOL    HW286353   7.253  10.922   3.496
28116SOL     OW86354   6.693  10.512   2.975
28116SOL    HW186355   6.640  10.566   3.035
28116SOL    HW286356   6.678  10.555   2.890
28117SOL     OW86357   7.179  10.391   2.931
28117SOL    HW186358   7.185  10.458   3.001
28117SOL    HW286359   7.114  10.429   2.868
28118SOL     OW86360   6.517   9.402   3.258
28118SOL    HW186361   6.544   9.384   3.165
28118SOL    HW286362   6.595   9.447   3.294
28119SOL     OW86363   6.585  10.432   3.599
28119SOL    HW186364   6.493  10.452   3.624
28119SOL    HW286365   6.574  10.356   3.540
28120SOL     OW86366   6.291  10.386   2.197
28120SOL    HW186367   6.274  10.358   2.288
28120SOL    HW286368   6.369  10.332   2.175
28121SOL     OW86369   6.010  10.128   3.122
28121SOL    HW186370   6.083  10.119   3.187
28121SOL    HW286371   5.966  10.042   3.128
28122SOL     OW86372   6.865   9.695   3.124
28122SOL    HW186373   6.876   9.769   3.187
28122SOL    HW286374   6.778   9.713   3.084
28123SOL     OW86375   5.638  10.883   3.214
28123SOL    HW186376   5.614  10.949   3.147
28123SOL    HW286377   5.736  10.886   3.212
28124SOL     OW86378   5.959  10.388   2.360
28124SOL    HW186379   5.985  10.455   2.296
28124SOL    HW286380   5.933  10.313   2.303
28125SOL     OW86381   6.124   9.855   2.701
28125SOL    HW186382   6.151   9.916   2.629
28125SOL    HW286383   6.193   9.869   2.766
28126SOL     OW86384   6.824  10.660   2.253
28126SOL    HW186385   6.881  10.728   2.295
28126SOL    HW286386   6.735  10.694   2.275
28127SOL     OW86387   6.890  10.760   3.036
28127SOL    HW186388   6.946  10.775   3.114
28127SOL    HW286389   6.836  10.684   3.062
28128SOL     OW86390   7.163   9.917   2.334
28128SOL    HW186391   7.114   9.969   2.399
28128SOL    HW286392   7.192   9.984   2.270
28129SOL     OW86393   5.913  10.832   3.193
28129SOL    HW186394   5.906  10.800   3.100
28129SOL    HW286395   6.007  10.856   3.194
28130SOL     OW86396   6.022  10.032   3.486
28130SOL    HW186397   6.073  10.085   3.421
28130SOL    HW286398   6.070   9.948   3.483
28131SOL     OW86399   7.220  10.071   3.543
28131SOL    HW186400   7.131  10.111   3.542
28131SOL    HW286401   7.261  10.115   3.465
28132SOL     OW86402   6.587   9.431   3.630
28132SOL    HW186403   6.633   9.505   3.588
28132SOL    HW286404   6.638   9.355   3.597
28133SOL     OW86405   6.093   9.322   3.616
28133SOL    HW186406   6.047   9.266   3.551
28133SOL    HW286407   6.032   9.399   3.618
28134SOL     OW86408   6.196  10.205   2.904
28134SOL    HW186409   6.215  10.300   2.900
28134SOL    HW286410   6.135  10.197   2.980
28135SOL     OW86411   6.946  10.181   2.886
28135SOL    HW186412   6.862  10.146   2.854
28135SOL    HW286413   6.996  10.099   2.897
28136SOL     OW86414   6.808   9.833   2.132
28136SOL    HW186415   6.816   9.763   2.200
28136SOL    HW286416   6.743   9.892   2.176
28137SOL     OW86417   5.894   9.505   3.112
28137SOL    HW186418   5.835   9.530   3.186
28137SOL    HW286419   5.874   9.410   3.104
28138SOL     OW86420   5.624  10.619   3.134
28138SOL    HW186421   5.654  10.567   3.210
28138SOL    HW286422   5.625  10.710   3.167
28139SOL     OW86423   6.301   9.957   2.904
28139SOL    HW186424   6.381   9.939   2.852
28139SOL    HW286425   6.278  10.050   2.885
28140SOL     OW86426   7.352  10.258   3.702
28140SOL    HW186427   7.307  10.190   3.649
28140SOL    HW286428   7.287  10.271   3.774
28141SOL     OW86429   5.870   9.377   2.486
28141SOL    HW186430   5.857   9.468   2.519
28141SOL    HW286431   5.880   9.327   2.568
28142SOL     OW86432   7.190   9.682   2.219
28142SOL    HW186433   7.212   9.616   2.287
28142SOL    HW286434   7.174   9.763   2.273
28143SOL     OW86435   6.629  10.064   2.830
28143SOL    HW186436   6.619  10.075   2.927
28143SOL    HW286437   6.605   9.970   2.819
28144SOL     OW86438   6.575  10.856   3.578
28144SOL    HW186439   6.575  10.915   3.503
28144SOL    HW286440   6.620  10.776   3.544
28145SOL     OW86441   7.421  10.845   3.463
28145SOL    HW186442   7.447  10.857   3.370
28145SOL    HW286443   7.507  10.830   3.505
28146SOL     OW86444   5.931  10.183   3.690
28146SOL    HW186445   6.014  10.225   3.721
28146SOL    HW286446   5.965  10.120   3.623
28147SOL     OW86447   7.096   9.579   1.989
28147SOL    HW186448   7.021   9.525   2.020
28147SOL    HW286449   7.136   9.609   2.074
28148SOL     OW86450   6.888  10.138   1.892
28148SOL    HW186451   6.924  10.049   1.907
28148SOL    HW286452   6.909  10.151   1.797
28149SOL     OW86453   6.672  10.640   2.707
28149SOL    HW186454   6.672  10.565   2.644
28149SOL    HW286455   6.734  10.705   2.669
28150SOL     OW86456   5.878  10.118   2.856
28150SOL    HW186457   5.968  10.139   2.828
28150SOL    HW286458   5.884  10.023   2.877
28151SOL     OW86459   5.923   9.845   2.871
28151SOL    HW186460   5.886   9.755   2.858
28151SOL    HW286461   5.989   9.850   2.799
28152SOL     OW86462   6.749   9.680   3.552
28152SOL    HW186463   6.701   9.735   3.618
28152SOL    HW286464   6.842   9.707   3.565
28153SOL     OW86465   6.760   9.513   3.344
28153SOL    HW186466   6.757   9.580   3.415
28153SOL    HW286467   6.790   9.566   3.268
28154SOL     OW86468   5.585  10.630   2.038
28154SOL    HW186469   5.494  10.655   2.010
28154SOL    HW286470   5.570  10.543   2.079
28155SOL     OW86471   6.100  10.905   2.792
28155SOL    HW186472   6.175  10.965   2.790
28155SOL    HW286473   6.133  10.831   2.738
28156SOL     OW86474   6.571  10.083   3.097
28156SOL    HW186475   6.616  10.050   3.177
28156SOL    HW286476   6.480  10.056   3.111
28157SOL     OW86477   5.612   9.826   2.980
28157SOL    HW186478   5.686   9.812   2.919
28157SOL    HW286479   5.657   9.841   3.063
28158SOL     OW86480   5.800   9.822   3.554
28158SOL    HW186481   5.885   9.809   3.508
28158SOL    HW286482   5.767   9.906   3.515
28159SOL     OW86483   6.988  10.207   3.511
28159SOL    HW186484   7.009  10.302   3.514
28159SOL    HW286485   6.969  10.194   3.416
28160SOL     OW86486   6.392   9.888   2.229
28160SOL    HW186487   6.404   9.810   2.172
28160SOL    HW286488   6.319   9.934   2.185
28161SOL     OW86489   7.240   9.919   3.055
28161SOL    HW186490   7.226   9.847   3.118
28161SOL    HW286491   7.327   9.897   3.017
28162SOL     OW86492   5.810  10.834   3.591
28162SOL    HW186493   5.802  10.909   3.652
28162SOL    HW286494   5.824  10.760   3.652
28163SOL     OW86495   6.250   9.797   3.129
28163SOL    HW186496   6.223   9.714   3.087
28163SOL    HW286497   6.263   9.857   3.052
28164SOL     OW86498   6.026   9.785   2.055
28164SOL    HW186499   6.094   9.853   2.062
28164SOL    HW286500   5.946   9.840   2.045
28165SOL     OW86501   5.698  10.445   3.329
28165SOL    HW186502   5.716  10.391   3.409
28165SOL    HW286503   5.726  10.385   3.257
28166SOL     OW86504   6.909  10.346   3.097
28166SOL    HW186505   6.934  10.295   3.017
28166SOL    HW286506   6.830  10.393   3.065
28167SOL     OW86507   6.894  10.187   2.156
28167SOL    HW186508   6.815  10.148   2.195
28167SOL    HW286509   6.875  10.182   2.060
28168SOL     OW86510   7.356  11.033   3.012
28168SOL    HW186511   7.404  11.040   2.928
28168SOL    HW286512   7.322  10.941   3.007
28169SOL     OW86513   6.832  11.022   2.954
28169SOL    HW186514   6.921  11.043   2.920
28169SOL    HW286515   6.839  10.928   2.975
28170SOL     OW86516   5.692  10.579   2.878
28170SOL    HW186517   5.660  10.591   2.970
28170SOL    HW286518   5.618  10.529   2.838
28171SOL     OW86519   6.278  10.966   3.582
28171SOL    HW186520   6.211  11.036   3.592
28171SOL    HW286521   6.351  11.013   3.539
28172SOL     OW86522   7.273   9.458   2.364
28172SOL    HW186523   7.343   9.439   2.300
28172SOL    HW286524   7.267   9.374   2.414
28173SOL     OW86525   6.978  10.872   2.354
28173SOL    HW186526   7.045  10.881   2.284
28173SOL    HW286527   6.939  10.961   2.354
28174SOL     OW86528   5.750   0.003   3.698
28174SOL    HW186529   5.696  11.037   3.744
28174SOL    HW286530   5.799   0.042   3.773
28175SOL     OW86531   6.842  10.219   2.522
28175SOL    HW186532   6.919  10.162   2.542
28175SOL    HW286533   6.884  10.297   2.482
28176SOL     OW86534   6.383  10.586   3.274
28176SOL    HW186535   6.354  10.634   3.355
28176SOL    HW286536   6.301  10.588   3.222
28177SOL     OW86537   6.248  10.930   2.006
28177SOL    HW186538   6.255  10.924   1.910
28177SOL    HW286539   6.184  10.859   2.028
28178SOL     OW86540   7.424   9.478   2.839
28178SOL    HW186541   7.448   9.393   2.799
28178SOL    HW286542   7.338   9.499   2.796
28179SOL     OW86543   5.838   9.635   2.575
28179SOL    HW186544   5.757   9.682   2.548
28179SOL    HW286545   5.837   9.646   2.671
28180SOL     OW86546   6.789  10.928   1.921
28180SOL    HW186547   6.797  10.834   1.901
28180SOL    HW286548   6.778  10.969   1.832
28181SOL     OW86549   6.417  10.320   3.217
28181SOL    HW186550   6.465  10.308   3.134
28181SOL    HW286551   6.414  10.417   3.228
28182SOL     OW86552   6.498  10.236   2.143
28182SOL    HW186553   6.572  10.258   2.083
28182SOL    HW286554   6.525  10.150   2.178
28183SOL     OW86555   7.114  10.962   1.910
28183SOL    HW186556   7.019  10.948   1.902
28183SOL    HW286557   7.141  10.967   1.815
28184SOL     OW86558   5.932  10.587   3.353
28184SOL    HW186559   5.921  10.666   3.298
28184SOL    HW286560   5.851  10.537   3.336
28185SOL     OW86561   7.189  10.594   3.142
28185SOL    HW186562   7.225  10.558   3.224
28185SOL    HW286563   7.135  10.668   3.176
28186SOL     OW86564   6.633  10.415   2.565
28186SOL    HW186565   6.562  10.366   2.611
28186SOL    HW286566   6.692  10.343   2.538
28187SOL     OW86567   6.613   9.539   2.848
28187SOL    HW186568   6.609   9.497   2.759
28187SOL    HW286569   6.613   9.460   2.906
28188SOL     OW86570   6.192  10.808   2.365
28188SOL    HW186571   6.212  10.761   2.282
28188SOL    HW286572   6.137  10.880   2.333
28189SOL     OW86573   7.293   9.695   3.242
28189SOL    HW186574   7.360   9.766   3.240
28189SOL    HW286575   7.332   9.629   3.181
28190SOL     OW86576   5.830  10.652   2.145
28190SOL    HW186577   5.735  10.657   2.126
28190SOL    HW286578   5.834  10.693   2.234
28191SOL     OW86579   5.723  10.319   3.564
28191SOL    HW186580   5.644  10.312   3.622
28191SOL    HW286581   5.794  10.280   3.619
28192SOL     OW86582   6.266   9.497   3.343
28192SOL    HW186583   6.349   9.458   3.311
28192SOL    HW286584   6.293   9.532   3.430
28193SOL     OW86585   5.679   9.656   1.896
28193SOL    HW186586   5.589   9.653   1.865
28193SOL    HW286587   5.715   9.730   1.845
28194SOL     OW86588   7.031  10.156   3.245
28194SOL    HW186589   6.983  10.221   3.189
28194SOL    HW286590   7.123  10.182   3.230
28195SOL     OW86591   5.631   9.472   2.154
28195SOL    HW186592   5.632   9.558   2.111
28195SOL    HW286593   5.716   9.435   2.126
28196SOL     OW86594   6.777  10.634   1.981
28196SOL    HW186595   6.686  10.601   1.989
28196SOL    HW286596   6.802  10.644   2.075
28197SOL     OW86597   6.211  10.124   3.298
28197SOL    HW186598   6.260  10.206   3.285
28197SOL    HW286599   6.284  10.061   3.308
28198SOL     OW86600   7.086  11.064   2.838
28198SOL    HW186601   7.119   0.009   2.760
28198SOL    HW286602   7.165  11.059   2.892
28199SOL     OW86603   6.307   9.855   3.580
28199SOL    HW186604   6.357   9.919   3.634
28199SOL    HW286605   6.332   9.769   3.614
28200SOL     OW86606   7.059  10.480   3.498
28200SOL    HW186607   7.042  10.489   3.595
28200SOL    HW286608   7.156  10.493   3.496
28201SOL     OW86609   7.276  10.190   3.089
28201SOL    HW186610   7.262  10.098   3.058
28201SOL    HW286611   7.236  10.244   3.018
28202SOL     OW86612   6.818   9.656   2.338
28202SOL    HW186613   6.873   9.575   2.338
28202SOL    HW286614   6.848   9.702   2.420
28203SOL     OW86615   6.188  10.041   2.519
28203SOL    HW186616   6.229  10.128   2.508
28203SOL    HW286617   6.113  10.045   2.458
28204SOL     OW86618   7.359   9.675   3.500
28204SOL    HW186619   7.328   9.689   3.408
28204SOL    HW286620   7.281   9.640   3.543
28205SOL     OW86621   7.318  10.225   3.353
28205SOL    HW186622   7.318  10.321   3.364
28205SOL    HW286623   7.327  10.215   3.255
28206SOL     OW86624   6.421  10.683   1.897
28206SOL    HW186625   6.405  10.729   1.981
28206SOL    HW286626   6.462  10.750   1.842
28207SOL     OW86627   6.470  10.258   2.711
28207SOL    HW186628   6.527  10.189   2.749
28207SOL    HW286629   6.440  10.306   2.789
28208SOL     OW86630   6.679  10.297   1.955
28208SOL    HW186631   6.656  10.355   1.880
28208SOL    HW286632   6.752  10.244   1.917
28209SOL     OW86633   7.421  10.929   2.737
28209SOL    HW186634   7.354  10.896   2.675
28209SOL    HW286635   7.447  10.848   2.782
28210SOL     OW86636   5.844  10.612   3.736
28210SOL    HW186637   5.770  10.569   3.692
28210SOL    HW286638   5.820  10.602   3.830
28211SOL     OW86639   5.666  10.566   2.515
28211SOL    HW186640   5.676  10.521   2.600
28211SOL    HW286641   5.715  10.508   2.455
28212SOL     OW86642   6.261  10.715   3.473
28212SOL    HW186643   6.193  10.661   3.518
28212SOL    HW286644   6.254  10.801   3.517
28213SOL     OW86645   7.399   9.488   3.101
28213SOL    HW186646   7.427   9.396   3.107
28213SOL    HW286647   7.410   9.502   3.005
28214SOL     OW86648   6.005   9.764   2.388
28214SOL    HW186649   6.066   9.703   2.345
28214SOL    HW286650   5.972   9.712   2.463
28215SOL     OW86651   7.282  10.781   2.972
28215SOL    HW186652   7.207  10.774   2.910
28215SOL    HW286653   7.266  10.703   3.029
28216SOL     OW86654   5.919   9.837   3.151
28216SOL    HW186655   6.000   9.809   3.197
28216SOL    HW286656   5.938   9.816   3.057
28217SOL     OW86657   6.385  10.906   2.565
28217SOL    HW186658   6.392  10.972   2.493
28217SOL    HW286659   6.301  10.861   2.544
28218SOL     OW86660   7.030   9.553   2.964
28218SOL    HW186661   7.040   9.461   2.991
28218SOL    HW286662   6.979   9.594   3.036
28219SOL     OW86663   6.604   9.315   3.013
28219SOL    HW186664   6.547   9.243   2.983
28219SOL    HW286665   6.693   9.273   3.012
28220SOL     OW86666   6.382  10.641   2.178
28220SOL    HW186667   6.342  10.552   2.167
28220SOL    HW286668   6.448  10.623   2.245
28221SOL     OW86669   6.188  10.862   3.133
28221SOL    HW186670   6.202  10.949   3.174
28221SOL    HW286671   6.278  10.842   3.102
28222SOL     OW86672   6.909   9.344   2.043
28222SOL    HW186673   6.917   9.278   1.973
28222SOL    HW286674   6.821   9.318   2.080
28223SOL     OW86675   6.895   9.788   2.559
28223SOL    HW186676   6.828   9.860   2.551
28223SOL    HW286677   6.869   9.746   2.643
28224SOL     OW86678   7.183   9.526   2.724
28224SOL    HW186679   7.113   9.538   2.791
28224SOL    HW286680   7.174   9.607   2.669
28225SOL     OW86681   5.630  10.377   2.170
28225SOL    HW186682   5.720  10.357   2.139
28225SOL    HW286683   5.600  10.287   2.194
28226SOL     OW86684   5.806   9.940   3.853
28226SOL    HW186685   5.714   9.952   3.882
28226SOL    HW286686   5.802   9.956   3.758
28227SOL     OW86687   5.801   9.601   4.724
28227SOL    HW186688   5.830   9.572   4.813
28227SOL    HW286689   5.717   9.551   4.715
28228SOL     OW86690   5.584   9.720   4.348
28228SOL    HW186691   5.502   9.740   4.399
28228SOL    HW286692   5.562   9.633   4.312
28229SOL     OW86693   6.145  10.590   4.895
28229SOL    HW186694   6.062  10.596   4.846
28229SOL    HW286695   6.143  10.672   4.946
28230SOL     OW86696   7.141  10.861   4.443
28230SOL    HW186697   7.091  10.828   4.519
28230SOL    HW286698   7.087  10.832   4.366
28231SOL     OW86699   6.711   9.987   4.430
28231SOL    HW186700   6.752  10.071   4.401
28231SOL    HW286701   6.678  10.011   4.518
28232SOL     OW86702   7.353   9.916   3.954
28232SOL    HW186703   7.339   9.896   3.860
28232SOL    HW286704   7.303   9.844   3.996
28233SOL     OW86705   6.332  10.461   4.737
28233SOL    HW186706   6.265  10.499   4.797
28233SOL    HW286707   6.373  10.542   4.702
28234SOL     OW86708   6.473  10.066   5.525
28234SOL    HW186709   6.442  10.131   5.589
28234SOL    HW286710   6.495  10.121   5.447
28235SOL     OW86711   6.271  10.334   4.375
28235SOL    HW186712   6.339  10.315   4.442
28235SOL    HW286713   6.205  10.384   4.426
28236SOL     OW86714   6.307  10.452   5.521
28236SOL    HW186715   6.334  10.538   5.559
28236SOL    HW286716   6.222  10.475   5.478
28237SOL     OW86717   5.920  10.742   4.792
28237SOL    HW186718   5.838  10.733   4.741
28237SOL    HW286719   5.974  10.802   4.736
28238SOL     OW86720   7.056  10.805   5.107
28238SOL    HW186721   7.074  10.894   5.139
28238SOL    HW286722   6.988  10.773   5.169
28239SOL     OW86723   6.029   9.706   5.247
28239SOL    HW186724   6.100   9.641   5.245
28239SOL    HW286725   5.950   9.652   5.228
28240SOL     OW86726   7.211   9.772   4.473
28240SOL    HW186727   7.139   9.807   4.418
28240SOL    HW286728   7.204   9.831   4.549
28241SOL     OW86729   6.733  10.656   5.400
28241SOL    HW186730   6.766  10.657   5.491
28241SOL    HW286731   6.686  10.571   5.399
28242SOL     OW86732   5.817  10.779   4.239
28242SOL    HW186733   5.842  10.864   4.279
28242SOL    HW286734   5.767  10.735   4.309
28243SOL     OW86735   5.850  10.401   4.628
28243SOL    HW186736   5.899  10.366   4.704
28243SOL    HW286737   5.802  10.477   4.670
28244SOL     OW86738   6.148  10.305   3.835
28244SOL    HW186739   6.202  10.347   3.766
28244SOL    HW286740   6.191  10.340   3.916
28245SOL     OW86741   7.196   9.422   5.221
28245SOL    HW186742   7.191   9.502   5.167
28245SOL    HW286743   7.203   9.460   5.310
28246SOL     OW86744   5.696   9.962   4.284
28246SOL    HW186745   5.657   9.872   4.278
28246SOL    HW286746   5.723   9.962   4.377
28247SOL     OW86747   5.641  10.903   3.835
28247SOL    HW186748   5.627  10.808   3.851
28247SOL    HW286749   5.591  10.944   3.906
28248SOL     OW86750   7.242  10.195   4.349
28248SOL    HW186751   7.316  10.226   4.403
28248SOL    HW286752   7.233  10.268   4.286
28249SOL     OW86753   7.245  10.436   4.177
28249SOL    HW186754   7.336  10.420   4.148
28249SOL    HW286755   7.255  10.505   4.245
28250SOL     OW86756   5.710  10.048   5.297
28250SOL    HW186757   5.807  10.064   5.296
28250SOL    HW286758   5.680  10.125   5.348
28251SOL     OW86759   6.177  10.710   4.483
28251SOL    HW186760   6.141  10.619   4.492
28251SOL    HW286761   6.167  10.724   4.387
28252SOL     OW86762   6.886  10.553   5.149
28252SOL    HW186763   6.908  10.479   5.089
28252SOL    HW286764   6.937  10.529   5.229
28253SOL     OW86765   6.416   9.303   4.224
28253SOL    HW186766   6.448   9.395   4.213
28253SOL    HW286767   6.322   9.317   4.243
28254SOL     OW86768   5.764  10.286   4.970
28254SOL    HW186769   5.853  10.246   4.972
28254SOL    HW286770   5.705  10.210   4.961
28255SOL     OW86771   7.131  10.273   3.907
28255SOL    HW186772   7.050  10.231   3.944
28255SOL    HW286773   7.175  10.306   3.987
28256SOL     OW86774   6.779   0.006   5.356
28256SOL    HW186775   6.780   0.074   5.287
28256SOL    HW286776   6.801  11.027   5.304
28257SOL     OW86777   5.928   9.547   5.499
28257SOL    HW186778   5.988   9.617   5.527
28257SOL    HW286779   5.846   9.573   5.543
28258SOL     OW86780   7.056  10.739   4.680
28258SOL    HW186781   6.993  10.743   4.755
28258SOL    HW286782   7.037  10.649   4.645
28259SOL     OW86783   6.169  10.021   3.970
28259SOL    HW186784   6.178  10.106   3.927
28259SOL    HW286785   6.102  10.039   4.039
28260SOL     OW86786   6.848   9.653   4.644
28260SOL    HW186787   6.764   9.611   4.667
28260SOL    HW286788   6.911   9.611   4.708
28261SOL     OW86789   7.163  10.945   4.029
28261SOL    HW186790   7.206  11.027   4.053
28261SOL    HW286791   7.154  10.952   3.932
28262SOL     OW86792   6.379   9.938   5.188
28262SOL    HW186793   6.365   9.896   5.276
28262SOL    HW286794   6.335   9.874   5.129
28263SOL     OW86795   6.979   9.788   5.398
28263SOL    HW186796   6.989   9.845   5.476
28263SOL    HW286797   7.040   9.714   5.419
28264SOL     OW86798   6.548  10.207   5.302
28264SOL    HW186799   6.588  10.124   5.268
28264SOL    HW286800   6.505  10.242   5.221
28265SOL     OW86801   6.563   9.714   4.959
28265SOL    HW186802   6.477   9.724   5.002
28265SOL    HW286803   6.539   9.675   4.874
28266SOL     OW86804   6.635   9.991   4.126
28266SOL    HW186805   6.646  10.013   4.219
28266SOL    HW286806   6.545   9.952   4.125
28267SOL     OW86807   5.671   0.031   5.287
28267SOL    HW186808   5.700   0.010   5.378
28267SOL    HW286809   5.576   0.046   5.298
28268SOL     OW86810   6.470   9.678   3.938
28268SOL    HW186811   6.505   9.734   3.867
28268SOL    HW286812   6.489   9.590   3.903
28269SOL     OW86813   7.305   9.891   5.562
28269SOL    HW186814   7.266   9.966   5.513
28269SOL    HW286815   7.338   9.835   5.490
28270SOL     OW86816   6.956  10.450   4.275
28270SOL    HW186817   7.044  10.460   4.235
28270SOL    HW286818   6.903  10.513   4.224
28271SOL     OW86819   6.133   9.500   4.612
28271SOL    HW186820   6.141   9.510   4.709
28271SOL    HW286821   6.119   9.592   4.584
28272SOL     OW86822   6.573  10.758   4.199
28272SOL    HW186823   6.497  10.800   4.158
28272SOL    HW286824   6.563  10.783   4.292
28273SOL     OW86825   5.935   0.007   4.595
28273SOL    HW186826   5.987  11.030   4.619
28273SOL    HW286827   6.002   0.079   4.602
28274SOL     OW86828   6.801  10.868   5.228
28274SOL    HW186829   6.797  10.788   5.283
28274SOL    HW286830   6.745  10.841   5.153
28275SOL     OW86831   5.896  10.259   3.975
28275SOL    HW186832   5.977  10.295   3.936
28275SOL    HW286833   5.873  10.190   3.911
28276SOL     OW86834   7.052  10.041   4.441
28276SOL    HW186835   7.062  10.024   4.536
28276SOL    HW286836   7.129  10.099   4.422
28277SOL     OW86837   6.071  10.555   5.436
28277SOL    HW186838   6.022  10.569   5.352
28277SOL    HW286839   5.998  10.561   5.500
28278SOL     OW86840   6.673  11.082   3.975
28278SOL    HW186841   6.615  11.025   4.026
28278SOL    HW286842   6.680  11.038   3.890
28279SOL     OW86843   5.755   9.603   5.228
28279SOL    HW186844   5.672   9.636   5.266
28279SOL    HW286845   5.767   9.520   5.276
28280SOL     OW86846   7.205  10.682   3.817
28280SOL    HW186847   7.156  10.765   3.809
28280SOL    HW286848   7.136  10.615   3.796
28281SOL     OW86849   6.985   9.412   4.168
28281SOL    HW186850   6.991   9.367   4.082
28281SOL    HW286851   7.078   9.437   4.184
28282SOL     OW86852   5.981  10.012   4.185
28282SOL    HW186853   6.003   9.920   4.208
28282SOL    HW286854   5.884  10.010   4.191
28283SOL     OW86855   7.123   9.569   5.452
28283SOL    HW186856   7.119   9.572   5.551
28283SOL    HW286857   7.061   9.497   5.434
28284SOL     OW86858   6.218   9.441   3.819
28284SOL    HW186859   6.287   9.381   3.847
28284SOL    HW286860   6.170   9.386   3.754
28285SOL     OW86861   6.358   9.564   5.457
28285SOL    HW186862   6.438   9.509   5.471
28285SOL    HW286863   6.305   9.544   5.535
28286SOL     OW86864   6.479  10.847   4.899
28286SOL    HW186865   6.471  10.802   4.812
28286SOL    HW286866   6.538  10.790   4.949
28287SOL     OW86867   6.918   9.899   5.152
28287SOL    HW186868   6.960   9.868   5.235
28287SOL    HW286869   6.971   9.979   5.131
28288SOL     OW86870   6.419  10.711   4.660
28288SOL    HW186871   6.506  10.698   4.616
28288SOL    HW286872   6.359  10.715   4.583
28289SOL     OW86873   6.523   9.819   4.638
28289SOL    HW186874   6.501   9.812   4.542
28289SOL    HW286875   6.561   9.731   4.654
28290SOL     OW86876   6.142   9.354   4.227
28290SOL    HW186877   6.064   9.361   4.285
28290SOL    HW286878   6.133   9.435   4.172
28291SOL     OW86879   7.026  10.489   3.760
28291SOL    HW186880   7.057  10.415   3.815
28291SOL    HW286881   6.936  10.505   3.790
28292SOL     OW86882   5.875   9.369   3.924
28292SOL    HW186883   5.942   9.437   3.912
28292SOL    HW286884   5.929   9.296   3.959
28293SOL     OW86885   6.517   9.556   4.203
28293SOL    HW186886   6.501   9.616   4.128
28293SOL    HW286887   6.612   9.571   4.218
28294SOL     OW86888   6.672   9.998   5.185
28294SOL    HW186889   6.621   9.916   5.192
28294SOL    HW286890   6.764   9.967   5.179
28295SOL     OW86891   6.827  10.880   4.526
28295SOL    HW186892   6.785  10.963   4.500
28295SOL    HW286893   6.903  10.911   4.576
28296SOL     OW86894   6.049  10.478   4.457
28296SOL    HW186895   5.978  10.446   4.517
28296SOL    HW286896   6.017  10.448   4.370
28297SOL     OW86897   6.640   9.839   3.751
28297SOL    HW186898   6.603   9.927   3.733
28297SOL    HW286899   6.708   9.857   3.818
28298SOL     OW86900   5.646   9.864   5.115
28298SOL    HW186901   5.740   9.842   5.107
28298SOL    HW286902   5.649   9.942   5.174
28299SOL     OW86903   6.156   9.528   4.875
28299SOL    HW186904   6.201   9.456   4.922
28299SOL    HW286905   6.067   9.526   4.917
28300SOL     OW86906   6.461   9.777   4.389
28300SOL    HW186907   6.426   9.827   4.314
28300SOL    HW286908   6.477   9.690   4.350
28301SOL     OW86909   6.624   9.378   4.490
28301SOL    HW186910   6.574   9.361   4.409
28301SOL    HW286911   6.599   9.301   4.545
28302SOL     OW86912   7.009  10.496   4.598
28302SOL    HW186913   6.967  10.413   4.625
28302SOL    HW286914   7.028  10.479   4.505
28303SOL     OW86915   7.068   9.896   4.696
28303SOL    HW186916   7.014   9.819   4.716
28303SOL    HW286917   7.131   9.900   4.770
28304SOL     OW86918   7.432  10.143   4.108
28304SOL    HW186919   7.475  10.092   4.178
28304SOL    HW286920   7.414  10.074   4.042
28305SOL     OW86921   6.070  10.741   3.909
28305SOL    HW186922   5.999  10.695   3.958
28305SOL    HW286923   6.038  10.730   3.819
28306SOL     OW86924   7.262  10.627   4.374
28306SOL    HW186925   7.357  10.626   4.392
28306SOL    HW286926   7.232  10.709   4.417
28307SOL     OW86927   6.989   9.912   3.788
28307SOL    HW186928   6.943   9.880   3.868
28307SOL    HW286929   7.080   9.917   3.820
28308SOL     OW86930   6.101   9.546   4.039
28308SOL    HW186931   6.157   9.520   3.963
28308SOL    HW286932   6.064   9.630   4.005
28309SOL     OW86933   7.324  10.519   5.318
28309SOL    HW186934   7.418  10.493   5.309
28309SOL    HW286935   7.332  10.614   5.333
28310SOL     OW86936   6.640  10.687   5.083
28310SOL    HW186937   6.557  10.647   5.114
28310SOL    HW286938   6.708  10.628   5.120
28311SOL     OW86939   7.183  10.971   5.354
28311SOL    HW186940   7.194  11.046   5.292
28311SOL    HW286941   7.268  10.923   5.345
28312SOL     OW86942   6.689  10.508   4.842
28312SOL    HW186943   6.636  10.568   4.895
28312SOL    HW286944   6.684  10.548   4.754
28313SOL     OW86945   7.166  10.372   4.822
28313SOL    HW186946   7.183  10.453   4.874
28313SOL    HW286947   7.184  10.402   4.732
28314SOL     OW86948   6.502   9.409   5.121
28314SOL    HW186949   6.533   9.383   5.032
28314SOL    HW286950   6.581   9.451   5.158
28315SOL     OW86951   6.590  10.432   5.466
28315SOL    HW186952   6.496  10.451   5.483
28315SOL    HW286953   6.584  10.354   5.407
28316SOL     OW86954   6.281  10.383   4.059
28316SOL    HW186955   6.273  10.357   4.152
28316SOL    HW286956   6.358  10.331   4.030
28317SOL     OW86957   5.995  10.127   4.986
28317SOL    HW186958   6.069  10.128   5.050
28317SOL    HW286959   5.957  10.038   4.999
28318SOL     OW86960   6.866   9.697   4.979
28318SOL    HW186961   6.884   9.773   5.039
28318SOL    HW286962   6.776   9.717   4.949
28319SOL     OW86963   5.637  10.874   5.072
28319SOL    HW186964   5.602  10.955   5.033
28319SOL    HW286965   5.732  10.890   5.078
28320SOL     OW86966   5.941  10.393   4.222
28320SOL    HW186967   5.965  10.467   4.165
28320SOL    HW286968   5.929  10.320   4.159
28321SOL     OW86969   6.113   9.853   4.561
28321SOL    HW186970   6.147   9.914   4.491
28321SOL    HW286971   6.179   9.867   4.631
28322SOL     OW86972   6.824  10.664   4.103
28322SOL    HW186973   6.881  10.731   4.147
28322SOL    HW286974   6.735  10.691   4.133
28323SOL     OW86975   6.888  10.767   4.900
28323SOL    HW186976   6.952  10.781   4.973
28323SOL    HW286977   6.845  10.685   4.925
28324SOL     OW86978   7.158   9.915   4.185
28324SOL    HW186979   7.115   9.965   4.256
28324SOL    HW286980   7.209   9.984   4.141
28325SOL     OW86981   5.916  10.827   5.052
28325SOL    HW186982   5.907  10.792   4.962
28325SOL    HW286983   6.009  10.854   5.052
28326SOL     OW86984   6.009  10.042   5.327
28326SOL    HW186985   6.078  10.087   5.274
28326SOL    HW286986   6.040   9.951   5.327
28327SOL     OW86987   7.204  10.082   5.404
28327SOL    HW186988   7.113  10.112   5.393
28327SOL    HW286989   7.249  10.122   5.326
28328SOL     OW86990   6.585   9.429   5.486
28328SOL    HW186991   6.637   9.505   5.458
28328SOL    HW286992   6.634   9.356   5.444
28329SOL     OW86993   6.088   9.327   5.480
28329SOL    HW186994   6.044   9.269   5.414
28329SOL    HW286995   6.027   9.403   5.481
28330SOL     OW86996   6.123  10.230   4.760
28330SOL    HW186997   6.199  10.290   4.766
28330SOL    HW286998   6.112  10.197   4.851
28331SOL     OW86999   6.942  10.184   4.739
28331SOL    HW187000   6.868  10.135   4.701
28331SOL    HW287001   7.006  10.115   4.756
28332SOL     OW87002   6.818   9.827   3.989
28332SOL    HW187003   6.824   9.754   4.054
28332SOL    HW287004   6.760   9.889   4.037
28333SOL     OW87005   5.888   9.513   4.968
28333SOL    HW187006   5.840   9.540   5.048
28333SOL    HW287007   5.867   9.417   4.965
28334SOL     OW87008   5.634  10.616   4.994
28334SOL    HW187009   5.657  10.564   5.072
28334SOL    HW287010   5.630  10.707   5.029
28335SOL     OW87011   6.293   9.930   4.750
28335SOL    HW187012   6.381   9.897   4.721
28335SOL    HW287013   6.297  10.024   4.730
28336SOL     OW87014   7.361  10.262   5.559
28336SOL    HW187015   7.311  10.213   5.492
28336SOL    HW287016   7.295  10.272   5.629
28337SOL     OW87017   5.882   9.374   4.337
28337SOL    HW187018   5.858   9.464   4.364
28337SOL    HW287019   5.891   9.328   4.423
28338SOL     OW87020   7.177   9.682   4.056
28338SOL    HW187021   7.214   9.617   4.118
28338SOL    HW287022   7.167   9.761   4.114
28339SOL     OW87023   6.637  10.063   4.684
28339SOL    HW187024   6.629  10.082   4.780
28339SOL    HW287025   6.613   9.969   4.681
28340SOL     OW87026   6.568  10.858   5.438
28340SOL    HW187027   6.579  10.917   5.363
28340SOL    HW287028   6.613  10.776   5.407
28341SOL     OW87029   7.421  10.834   5.329
28341SOL    HW187030   7.450  10.841   5.237
28341SOL    HW287031   7.506  10.834   5.377
28342SOL     OW87032   5.937  10.197   5.538
28342SOL    HW187033   6.020  10.228   5.580
28342SOL    HW287034   5.969  10.132   5.473
28343SOL     OW87035   7.078   9.553   3.826
28343SOL    HW187036   6.999   9.523   3.874
28343SOL    HW287037   7.126   9.599   3.898
28344SOL     OW87038   6.862  10.150   3.743
28344SOL    HW187039   6.896  10.061   3.762
28344SOL    HW287040   6.908  10.170   3.659
28345SOL     OW87041   6.664  10.633   4.575
28345SOL    HW187042   6.667  10.560   4.510
28345SOL    HW287043   6.729  10.697   4.541
28346SOL     OW87044   5.867  10.112   4.709
28346SOL    HW187045   5.960  10.142   4.716
28346SOL    HW287046   5.876  10.019   4.737
28347SOL     OW87047   5.909   9.848   4.728
28347SOL    HW187048   5.880   9.755   4.719
28347SOL    HW287049   5.979   9.852   4.659
28348SOL     OW87050   6.737   9.683   5.408
28348SOL    HW187051   6.695   9.734   5.480
28348SOL    HW287052   6.827   9.720   5.409
28349SOL     OW87053   6.748   9.514   5.198
28349SOL    HW187054   6.750   9.576   5.274
28349SOL    HW287055   6.795   9.565   5.130
28350SOL     OW87056   5.590  10.633   3.902
28350SOL    HW187057   5.498  10.653   3.872
28350SOL    HW287058   5.579  10.545   3.941
28351SOL     OW87059   6.100  10.906   4.655
28351SOL    HW187060   6.179  10.959   4.667
28351SOL    HW287061   6.134  10.834   4.598
28352SOL     OW87062   6.559  10.083   4.945
28352SOL    HW187063   6.619  10.059   5.019
28352SOL    HW287064   6.474  10.055   4.981
28353SOL     OW87065   5.620   9.844   4.831
28353SOL    HW187066   5.700   9.821   4.783
28353SOL    HW287067   5.650   9.837   4.923
28354SOL     OW87068   5.806   9.831   5.448
28354SOL    HW187069   5.855   9.778   5.384
28354SOL    HW287070   5.756   9.891   5.391
28355SOL     OW87071   6.948  10.232   5.369
28355SOL    HW187072   6.994  10.318   5.373
28355SOL    HW287073   6.952  10.211   5.274
28356SOL     OW87074   6.391   9.884   4.106
28356SOL    HW187075   6.406   9.812   4.041
28356SOL    HW287076   6.312   9.928   4.070
28357SOL     OW87077   7.246   9.914   4.913
28357SOL    HW187078   7.226   9.847   4.980
28357SOL    HW287079   7.333   9.884   4.879
28358SOL     OW87080   5.811  10.838   5.458
28358SOL    HW187081   5.796  10.907   5.524
28358SOL    HW287082   5.827  10.759   5.512
28359SOL     OW87083   6.257   9.796   4.993
28359SOL    HW187084   6.224   9.711   4.960
28359SOL    HW287085   6.262   9.850   4.912
28360SOL     OW87086   6.021   9.780   3.917
28360SOL    HW187087   6.090   9.848   3.925
28360SOL    HW287088   5.941   9.836   3.906
28361SOL     OW87089   5.699  10.440   5.189
28361SOL    HW187090   5.718  10.385   5.269
28361SOL    HW287091   5.725  10.381   5.116
28362SOL     OW87092   6.904  10.347   4.978
28362SOL    HW187093   6.954  10.318   4.899
28362SOL    HW287094   6.828  10.390   4.936
28363SOL     OW87095   6.894  10.182   4.016
28363SOL    HW187096   6.815  10.149   4.060
28363SOL    HW287097   6.870  10.185   3.922
28364SOL     OW87098   7.356  11.022   4.873
28364SOL    HW187099   7.404  11.031   4.790
28364SOL    HW287100   7.327  10.929   4.868
28365SOL     OW87101   6.833  11.034   4.824
28365SOL    HW187102   6.920  11.052   4.784
28365SOL    HW287103   6.840  10.939   4.843
28366SOL     OW87104   5.686  10.570   4.741
28366SOL    HW187105   5.663  10.587   4.836
28366SOL    HW287106   5.600  10.547   4.705
28367SOL     OW87107   6.274  10.971   5.444
28367SOL    HW187108   6.212  11.045   5.457
28367SOL    HW287109   6.347  11.013   5.396
28368SOL     OW87110   7.264   9.452   4.212
28368SOL    HW187111   7.341   9.436   4.155
28368SOL    HW287112   7.264   9.373   4.270
28369SOL     OW87113   6.975  10.869   4.206
28369SOL    HW187114   7.048  10.882   4.142
28369SOL    HW287115   6.938  10.958   4.210
28370SOL     OW87116   5.734   0.010   5.551
28370SOL    HW187117   5.674  11.049   5.595
28370SOL    HW287118   5.778   0.049   5.628
28371SOL     OW87119   6.846  10.208   4.372
28371SOL    HW187120   6.924  10.153   4.397
28371SOL    HW287121   6.888  10.288   4.336
28372SOL     OW87122   6.384  10.581   5.146
28372SOL    HW187123   6.355  10.628   5.227
28372SOL    HW287124   6.303  10.588   5.093
28373SOL     OW87125   6.251  10.932   3.863
28373SOL    HW187126   6.274  10.918   3.770
28373SOL    HW287127   6.193  10.856   3.883
28374SOL     OW87128   7.421   9.468   4.686
28374SOL    HW187129   7.437   9.376   4.660
28374SOL    HW287130   7.337   9.490   4.641
28375SOL     OW87131   5.831   9.630   4.430
28375SOL    HW187132   5.744   9.670   4.412
28375SOL    HW287133   5.837   9.636   4.527
28376SOL     OW87134   6.791  10.934   3.755
28376SOL    HW187135   6.786  10.842   3.783
28376SOL    HW287136   6.724  10.939   3.684
28377SOL     OW87137   6.421  10.320   5.079
28377SOL    HW187138   6.473  10.314   4.998
28377SOL    HW287139   6.418  10.417   5.096
28378SOL     OW87140   6.493  10.239   3.992
28378SOL    HW187141   6.574  10.269   3.946
28378SOL    HW287142   6.523  10.157   4.033
28379SOL     OW87143   7.111  10.958   3.766
28379SOL    HW187144   7.016  10.939   3.757
28379SOL    HW287145   7.139  10.961   3.672
28380SOL     OW87146   5.934  10.586   5.210
28380SOL    HW187147   5.915  10.667   5.160
28380SOL    HW287148   5.852  10.535   5.200
28381SOL     OW87149   7.187  10.600   4.999
28381SOL    HW187150   7.244  10.579   5.073
28381SOL    HW287151   7.139  10.679   5.033
28382SOL     OW87152   6.623  10.415   4.424
28382SOL    HW187153   6.562  10.357   4.473
28382SOL    HW287154   6.688  10.352   4.390
28383SOL     OW87155   6.612   9.535   4.710
28383SOL    HW187156   6.609   9.490   4.622
28383SOL    HW287157   6.614   9.458   4.770
28384SOL     OW87158   6.184  10.801   4.223
28384SOL    HW187159   6.211  10.765   4.137
28384SOL    HW287160   6.137  10.880   4.196
28385SOL     OW87161   7.299   9.685   5.106
28385SOL    HW187162   7.366   9.757   5.102
28385SOL    HW287163   7.341   9.618   5.049
28386SOL     OW87164   5.838  10.648   4.014
28386SOL    HW187165   5.743  10.659   3.992
28386SOL    HW287166   5.842  10.698   4.098
28387SOL     OW87167   5.722  10.313   5.422
28387SOL    HW187168   5.646  10.306   5.484
28387SOL    HW287169   5.796  10.276   5.474
28388SOL     OW87170   6.260   9.502   5.208
28388SOL    HW187171   6.346   9.467   5.176
28388SOL    HW287172   6.286   9.539   5.294
28389SOL     OW87173   5.636   9.641   3.651
28389SOL    HW187174   5.604   9.659   3.741
28389SOL    HW287175   5.696   9.718   3.635
28390SOL     OW87176   7.039  10.154   5.114
28390SOL    HW187177   6.992  10.224   5.064
28390SOL    HW287178   7.131  10.176   5.093
28391SOL     OW87179   5.631   9.468   4.023
28391SOL    HW187180   5.631   9.559   3.993
28391SOL    HW287181   5.720   9.436   3.996
28392SOL     OW87182   6.780  10.638   3.837
28392SOL    HW187183   6.694  10.593   3.839
28392SOL    HW287184   6.802  10.643   3.933
28393SOL     OW87185   6.210  10.136   5.151
28393SOL    HW187186   6.270  10.211   5.141
28393SOL    HW287187   6.274  10.064   5.167
28394SOL     OW87188   7.087  11.061   4.695
28394SOL    HW187189   7.119   0.006   4.616
28394SOL    HW287190   7.169  11.034   4.737
28395SOL     OW87191   6.316   9.844   5.425
28395SOL    HW187192   6.353   9.908   5.488
28395SOL    HW287193   6.335   9.757   5.464
28396SOL     OW87194   7.063  10.473   5.361
28396SOL    HW187195   7.051  10.490   5.457
28396SOL    HW287196   7.160  10.484   5.351
28397SOL     OW87197   7.302  10.184   4.966
28397SOL    HW187198   7.289  10.098   4.922
28397SOL    HW287199   7.258  10.246   4.904
28398SOL     OW87200   6.801   9.633   4.193
28398SOL    HW187201   6.864   9.559   4.194
28398SOL    HW287202   6.835   9.687   4.268
28399SOL     OW87203   6.187  10.045   4.384
28399SOL    HW187204   6.225  10.133   4.377
28399SOL    HW287205   6.114  10.049   4.319
28400SOL     OW87206   7.352   9.685   5.365
28400SOL    HW187207   7.322   9.696   5.273
28400SOL    HW287208   7.276   9.637   5.404
28401SOL     OW87209   7.330  10.232   5.223
28401SOL    HW187210   7.330  10.329   5.224
28401SOL    HW287211   7.341  10.212   5.128
28402SOL     OW87212   6.440  10.666   3.757
28402SOL    HW187213   6.419  10.687   3.849
28402SOL    HW287214   6.478  10.748   3.721
28403SOL     OW87215   6.460  10.251   4.565
28403SOL    HW187216   6.522  10.187   4.605
28403SOL    HW287217   6.441  10.311   4.639
28404SOL     OW87218   6.686  10.323   3.825
28404SOL    HW187219   6.650  10.370   3.748
28404SOL    HW287220   6.743  10.257   3.782
28405SOL     OW87221   7.421  10.936   4.603
28405SOL    HW187222   7.353  10.908   4.541
28405SOL    HW287223   7.446  10.852   4.644
28406SOL     OW87224   5.844  10.615   5.597
28406SOL    HW187225   5.765  10.570   5.566
28406SOL    HW287226   5.827  10.618   5.693
28407SOL     OW87227   5.677  10.568   4.375
28407SOL    HW187228   5.718  10.552   4.461
28407SOL    HW287229   5.727  10.511   4.314
28408SOL     OW87230   6.264  10.721   5.340
28408SOL    HW187231   6.196  10.667   5.384
28408SOL    HW287232   6.252  10.808   5.380
28409SOL     OW87233   7.399   9.482   4.951
28409SOL    HW187234   7.413   9.388   4.965
28409SOL    HW287235   7.407   9.489   4.853
28410SOL     OW87236   6.015   9.752   4.248
28410SOL    HW187237   6.065   9.683   4.203
28410SOL    HW287238   5.977   9.705   4.325
28411SOL     OW87239   7.285  10.772   4.811
28411SOL    HW187240   7.206  10.764   4.755
28411SOL    HW287241   7.273  10.695   4.870
28412SOL     OW87242   5.918   9.844   5.016
28412SOL    HW187243   5.988   9.805   5.070
28412SOL    HW287244   5.940   9.816   4.926
28413SOL     OW87245   6.415  10.884   4.411
28413SOL    HW187246   6.412  10.961   4.350
28413SOL    HW287247   6.326  10.848   4.404
28414SOL     OW87248   7.019   9.554   4.818
28414SOL    HW187249   7.042   9.473   4.865
28414SOL    HW287250   6.970   9.604   4.887
28415SOL     OW87251   6.596   9.314   4.876
28415SOL    HW187252   6.541   9.241   4.845
28415SOL    HW287253   6.685   9.272   4.875
28416SOL     OW87254   6.379  10.646   4.028
28416SOL    HW187255   6.330  10.562   4.026
28416SOL    HW287256   6.447  10.627   4.095
28417SOL     OW87257   6.194  10.866   4.997
28417SOL    HW187258   6.210  10.951   5.038
28417SOL    HW287259   6.282  10.843   4.964
28418SOL     OW87260   6.894   9.346   3.865
28418SOL    HW187261   6.901   9.253   3.840
28418SOL    HW287262   6.809   9.343   3.914
28419SOL     OW87263   6.876   9.776   4.401
28419SOL    HW187264   6.822   9.857   4.403
28419SOL    HW287265   6.864   9.741   4.492
28420SOL     OW87266   7.185   9.515   4.568
28420SOL    HW187267   7.112   9.518   4.632
28420SOL    HW287268   7.185   9.606   4.533
28421SOL     OW87269   5.627  10.381   4.036
28421SOL    HW187270   5.719  10.365   4.008
28421SOL    HW287271   5.602  10.291   4.063
28422SOL     OW87272   5.827   9.951   5.720
28422SOL    HW187273   5.735   9.934   5.746
28422SOL    HW287274   5.829   9.928   5.625
28423SOL     OW87275   5.802   9.585   6.562
28423SOL    HW187276   5.828   9.566   6.653
28423SOL    HW287277   5.713   9.545   6.559
28424SOL     OW87278   5.583   9.720   6.215
28424SOL    HW187279   5.499   9.740   6.261
28424SOL    HW287280   5.562   9.635   6.174
28425SOL     OW87281   6.146  10.588   6.758
28425SOL    HW187282   6.059  10.590   6.717
28425SOL    HW287283   6.150  10.676   6.799
28426SOL     OW87284   7.150  10.841   6.299
28426SOL    HW187285   7.096  10.818   6.377
28426SOL    HW287286   7.087  10.835   6.225
28427SOL     OW87287   6.716   9.988   6.289
28427SOL    HW187288   6.750  10.077   6.268
28427SOL    HW287289   6.671  10.005   6.373
28428SOL     OW87290   7.363   9.914   5.820
28428SOL    HW187291   7.344   9.907   5.724
28428SOL    HW287292   7.315   9.838   5.855
28429SOL     OW87293   6.317  10.461   6.596
28429SOL    HW187294   6.253  10.500   6.658
28429SOL    HW287295   6.362  10.541   6.562
28430SOL     OW87296   6.453  10.108   7.395
28430SOL    HW187297   6.452  10.185   7.452
28430SOL    HW287298   6.484  10.144   7.310
28431SOL     OW87299   6.281  10.334   6.236
28431SOL    HW187300   6.342  10.315   6.308
28431SOL    HW287301   6.207  10.378   6.282
28432SOL     OW87302   6.270  10.468   7.390
28432SOL    HW187303   6.303  10.551   7.348
28432SOL    HW287304   6.177  10.473   7.360
28433SOL     OW87305   5.913  10.751   6.669
28433SOL    HW187306   5.837  10.717   6.620
28433SOL    HW287307   5.962  10.804   6.604
28434SOL     OW87308   7.075  10.812   6.980
28434SOL    HW187309   7.032  10.836   6.896
28434SOL    HW287310   6.995  10.797   7.034
28435SOL     OW87311   6.008   9.696   7.140
28435SOL    HW187312   6.092   9.668   7.100
28435SOL    HW287313   5.942   9.651   7.085
28436SOL     OW87314   7.205   9.760   6.327
28436SOL    HW187315   7.133   9.795   6.272
28436SOL    HW287316   7.196   9.815   6.407
28437SOL     OW87317   6.745  10.651   7.267
28437SOL    HW187318   6.761  10.652   7.362
28437SOL    HW287319   6.690  10.570   7.260
28438SOL     OW87320   5.845  10.759   6.120
28438SOL    HW187321   5.848  10.854   6.137
28438SOL    HW287322   5.774  10.727   6.178
28439SOL     OW87323   5.860  10.402   6.482
28439SOL    HW187324   5.856  10.329   6.546
28439SOL    HW287325   5.811  10.473   6.528
28440SOL     OW87326   6.154  10.306   5.698
28440SOL    HW187327   6.210  10.348   5.629
28440SOL    HW287328   6.193  10.343   5.779
28441SOL     OW87329   7.198   9.417   7.079
28441SOL    HW187330   7.199   9.495   7.023
28441SOL    HW287331   7.193   9.454   7.167
28442SOL     OW87332   5.703   9.964   6.148
28442SOL    HW187333   5.671   9.873   6.163
28442SOL    HW287334   5.697  10.003   6.237
28443SOL     OW87335   5.638  10.904   5.716
28443SOL    HW187336   5.624  10.809   5.729
28443SOL    HW287337   5.571  10.944   5.772
28444SOL     OW87338   7.266  10.233   6.242
28444SOL    HW187339   7.333  10.182   6.194
28444SOL    HW287340   7.230  10.289   6.172
28445SOL     OW87341   7.238  10.424   6.037
28445SOL    HW187342   7.328  10.419   6.002
28445SOL    HW287343   7.248  10.491   6.109
28446SOL     OW87344   5.705  10.040   7.167
28446SOL    HW187345   5.795  10.075   7.168
28446SOL    HW287346   5.653  10.120   7.187
28447SOL     OW87347   6.178  10.706   6.353
28447SOL    HW187348   6.143  10.614   6.362
28447SOL    HW287349   6.169  10.718   6.257
28448SOL     OW87350   6.879  10.555   7.006
28448SOL    HW187351   6.906  10.479   6.950
28448SOL    HW287352   6.923  10.535   7.091
28449SOL     OW87353   6.423   9.313   6.088
28449SOL    HW187354   6.455   9.404   6.075
28449SOL    HW287355   6.326   9.326   6.090
28450SOL     OW87356   5.766  10.286   6.861
28450SOL    HW187357   5.853  10.243   6.854
28450SOL    HW287358   5.710  10.227   6.809
28451SOL     OW87359   7.125  10.283   5.785
28451SOL    HW187360   7.044  10.243   5.822
28451SOL    HW287361   7.171  10.314   5.864
28452SOL     OW87362   6.801  11.100   7.205
28452SOL    HW187363   6.792   0.062   7.132
28452SOL    HW287364   6.797  11.015   7.158
28453SOL     OW87365   5.922   9.533   7.398
28453SOL    HW187366   5.955   9.610   7.350
28453SOL    HW287367   5.842   9.569   7.440
28454SOL     OW87368   7.045  10.738   6.539
28454SOL    HW187369   6.989  10.736   6.619
28454SOL    HW287370   7.024  10.651   6.498
28455SOL     OW87371   6.174  10.019   5.843
28455SOL    HW187372   6.175  10.108   5.805
28455SOL    HW287373   6.107  10.027   5.913
28456SOL     OW87374   6.859   9.635   6.484
28456SOL    HW187375   6.770   9.609   6.515
28456SOL    HW287376   6.916   9.598   6.554
28457SOL     OW87377   7.158  10.955   5.889
28457SOL    HW187378   7.213  11.030   5.914
28457SOL    HW287379   7.154  10.963   5.792
28458SOL     OW87380   6.984   9.792   7.249
28458SOL    HW187381   6.989   9.850   7.327
28458SOL    HW287382   7.035   9.714   7.276
28459SOL     OW87383   6.576  10.230   7.159
28459SOL    HW187384   6.623  10.148   7.134
28459SOL    HW287385   6.515  10.242   7.083
28460SOL     OW87386   6.588   9.716   6.825
28460SOL    HW187387   6.530   9.755   6.891
28460SOL    HW287388   6.527   9.685   6.757
28461SOL     OW87389   6.626   9.991   5.999
28461SOL    HW187390   6.644  10.007   6.093
28461SOL    HW287391   6.539   9.946   6.003
28462SOL     OW87392   5.690  10.117   6.383
28462SOL    HW187393   5.761  10.119   6.451
28462SOL    HW287394   5.652  10.206   6.392
28463SOL     OW87395   5.667   0.056   7.168
28463SOL    HW187396   5.697   0.030   7.258
28463SOL    HW287397   5.575   0.028   7.167
28464SOL     OW87398   6.469   9.671   5.804
28464SOL    HW187399   6.508   9.730   5.737
28464SOL    HW287400   6.493   9.585   5.769
28465SOL     OW87401   7.304   9.878   7.423
28465SOL    HW187402   7.270   9.966   7.398
28465SOL    HW287403   7.294   9.834   7.337
28466SOL     OW87404   6.954  10.458   6.142
28466SOL    HW187405   7.038  10.462   6.093
28466SOL    HW287406   6.897  10.516   6.089
28467SOL     OW87407   6.131   9.500   6.478
28467SOL    HW187408   6.139   9.509   6.575
28467SOL    HW287409   6.122   9.593   6.450
28468SOL     OW87410   6.586  10.782   6.077
28468SOL    HW187411   6.509  10.798   6.021
28468SOL    HW287412   6.553  10.809   6.165
28469SOL     OW87413   5.931   0.010   6.457
28469SOL    HW187414   5.981  11.036   6.491
28469SOL    HW287415   5.997   0.083   6.460
28470SOL     OW87416   7.384  10.396   6.462
28470SOL    HW187417   7.334  10.360   6.386
28470SOL    HW287418   7.319  10.385   6.534
28471SOL     OW87419   6.822  10.849   7.079
28471SOL    HW187420   6.806  10.778   7.145
28471SOL    HW287421   6.744  10.836   7.023
28472SOL     OW87422   5.885  10.265   5.832
28472SOL    HW187423   5.969  10.286   5.790
28472SOL    HW287424   5.858  10.187   5.781
28473SOL     OW87425   7.057  10.067   6.310
28473SOL    HW187426   7.061  10.023   6.396
28473SOL    HW287427   7.137  10.121   6.309
28474SOL     OW87428   6.021  10.498   7.317
28474SOL    HW187429   6.006  10.536   7.227
28474SOL    HW287430   5.963  10.555   7.371
28475SOL     OW87431   6.668  11.068   5.843
28475SOL    HW187432   6.603  11.012   5.885
28475SOL    HW287433   6.682  11.026   5.757
28476SOL     OW87434   5.756   9.593   7.074
28476SOL    HW187435   5.685   9.652   7.103
28476SOL    HW287436   5.738   9.513   7.126
28477SOL     OW87437   7.204  10.690   5.680
28477SOL    HW187438   7.160  10.774   5.662
28477SOL    HW287439   7.134  10.624   5.662
28478SOL     OW87440   6.981   9.429   6.034
28478SOL    HW187441   6.973   9.388   5.946
28478SOL    HW287442   7.077   9.437   6.045
28479SOL     OW87443   5.981  10.013   6.046
28479SOL    HW187444   6.003   9.921   6.071
28479SOL    HW287445   5.886  10.014   6.062
28480SOL     OW87446   7.114   9.559   7.312
28480SOL    HW187447   7.115   9.559   7.410
28480SOL    HW287448   7.053   9.487   7.293
28481SOL     OW87449   6.217   9.447   5.677
28481SOL    HW187450   6.285   9.386   5.708
28481SOL    HW287451   6.167   9.392   5.613
28482SOL     OW87452   6.354   9.546   7.323
28482SOL    HW187453   6.442   9.506   7.340
28482SOL    HW287454   6.361   9.636   7.360
28483SOL     OW87455   6.489  10.845   6.743
28483SOL    HW187456   6.463  10.798   6.662
28483SOL    HW287457   6.528  10.775   6.798
28484SOL     OW87458   6.939   9.896   6.999
28484SOL    HW187459   6.965   9.864   7.088
28484SOL    HW287460   6.983   9.983   6.993
28485SOL     OW87461   6.427  10.704   6.523
28485SOL    HW187462   6.511  10.698   6.474
28485SOL    HW287463   6.362  10.716   6.451
28486SOL     OW87464   6.529   9.831   6.494
28486SOL    HW187465   6.497   9.819   6.401
28486SOL    HW287466   6.555   9.741   6.517
28487SOL     OW87467   6.144   9.357   6.085
28487SOL    HW187468   6.067   9.364   6.144
28487SOL    HW287469   6.132   9.435   6.028
28488SOL     OW87470   7.028  10.493   5.631
28488SOL    HW187471   7.059  10.417   5.685
28488SOL    HW287472   6.933  10.492   5.645
28489SOL     OW87473   5.868   9.351   5.774
28489SOL    HW187474   5.929   9.424   5.755
28489SOL    HW287475   5.929   9.286   5.815
28490SOL     OW87476   6.517   9.567   6.072
28490SOL    HW187477   6.499   9.613   5.988
28490SOL    HW287478   6.613   9.580   6.081
28491SOL     OW87479   6.700  10.009   7.077
28491SOL    HW187480   6.622   9.950   7.073
28491SOL    HW287481   6.773   9.955   7.043
28492SOL     OW87482   6.832  10.875   6.385
28492SOL    HW187483   6.806  10.951   6.332
28492SOL    HW287484   6.895  10.913   6.447
28493SOL     OW87485   6.061  10.467   6.321
28493SOL    HW187486   5.990  10.442   6.384
28493SOL    HW287487   6.020  10.446   6.235
28494SOL     OW87488   6.643   9.845   5.613
28494SOL    HW187489   6.600   9.931   5.597
28494SOL    HW287490   6.713   9.866   5.677
28495SOL     OW87491   5.655   9.861   6.978
28495SOL    HW187492   5.750   9.845   6.961
28495SOL    HW287493   5.658   9.938   7.039
28496SOL     OW87494   6.154   9.520   6.744
28496SOL    HW187495   6.194   9.462   6.809
28496SOL    HW287496   6.062   9.526   6.776
28497SOL     OW87497   6.453   9.782   6.248
28497SOL    HW187498   6.400   9.827   6.180
28497SOL    HW287499   6.477   9.700   6.204
28498SOL     OW87500   6.630   9.371   6.352
28498SOL    HW187501   6.572   9.365   6.276
28498SOL    HW287502   6.602   9.294   6.406
28499SOL     OW87503   7.004  10.487   6.464
28499SOL    HW187504   6.932  10.427   6.486
28499SOL    HW287505   7.012  10.472   6.368
28500SOL     OW87506   7.080   9.907   6.553
28500SOL    HW187507   7.017   9.835   6.565
28500SOL    HW287508   7.132   9.905   6.635
28501SOL     OW87509   7.416  10.135   5.986
28501SOL    HW187510   7.476  10.080   6.042
28501SOL    HW287511   7.406  10.077   5.909
28502SOL     OW87512   6.070  10.742   5.770
28502SOL    HW187513   5.994  10.711   5.824
28502SOL    HW287514   6.047  10.704   5.686
28503SOL     OW87515   7.255  10.595   6.249
28503SOL    HW187516   7.352  10.607   6.249
28503SOL    HW287517   7.221  10.684   6.269
28504SOL     OW87518   6.995   9.908   5.650
28504SOL    HW187519   6.950   9.876   5.731
28504SOL    HW287520   7.087   9.888   5.670
28505SOL     OW87521   6.109   9.547   5.903
28505SOL    HW187522   6.155   9.519   5.822
28505SOL    HW287523   6.077   9.635   5.876
28506SOL     OW87524   7.326  10.514   7.192
28506SOL    HW187525   7.418  10.494   7.166
28506SOL    HW287526   7.339  10.595   7.244
28507SOL     OW87527   6.641  10.680   6.943
28507SOL    HW187528   6.556  10.643   6.973
28507SOL    HW287529   6.706  10.621   6.985
28508SOL     OW87530   6.708  10.522   6.693
28508SOL    HW187531   6.633  10.541   6.750
28508SOL    HW287532   6.679  10.559   6.608
28509SOL     OW87533   7.185  10.400   6.658
28509SOL    HW187534   7.187  10.459   6.735
28509SOL    HW287535   7.120  10.442   6.599
28510SOL     OW87536   6.516   9.398   6.986
28510SOL    HW187537   6.542   9.378   6.893
28510SOL    HW287538   6.594   9.446   7.018
28511SOL     OW87539   6.585  10.437   7.336
28511SOL    HW187540   6.490  10.457   7.346
28511SOL    HW287541   6.585  10.369   7.266
28512SOL     OW87542   6.282  10.392   5.929
28512SOL    HW187543   6.267  10.369   6.022
28512SOL    HW287544   6.360  10.335   5.908
28513SOL     OW87545   5.994  10.127   6.854
28513SOL    HW187546   6.071  10.130   6.915
28513SOL    HW287547   5.968  10.034   6.860
28514SOL     OW87548   6.866   9.692   6.852
28514SOL    HW187549   6.889   9.772   6.904
28514SOL    HW287550   6.772   9.707   6.829
28515SOL     OW87551   5.652  10.867   6.935
28515SOL    HW187552   5.633  10.936   6.871
28515SOL    HW287553   5.749  10.872   6.945
28516SOL     OW87554   5.953  10.396   6.082
28516SOL    HW187555   5.982  10.463   6.019
28516SOL    HW287556   5.932  10.321   6.024
28517SOL     OW87557   6.120   9.850   6.432
28517SOL    HW187558   6.152   9.906   6.358
28517SOL    HW287559   6.181   9.873   6.504
28518SOL     OW87560   6.824  10.665   5.969
28518SOL    HW187561   6.884  10.730   6.011
28518SOL    HW287562   6.737  10.698   5.998
28519SOL     OW87563   6.890  10.750   6.777
28519SOL    HW187564   6.874  10.717   6.867
28519SOL    HW287565   6.825  10.697   6.728
28520SOL     OW87566   7.167   9.915   6.045
28520SOL    HW187567   7.113   9.970   6.104
28520SOL    HW287568   7.211   9.980   5.989
28521SOL     OW87569   5.919  10.834   6.919
28521SOL    HW187570   5.908  10.801   6.827
28521SOL    HW287571   6.015  10.851   6.917
28522SOL     OW87572   6.034  10.053   7.217
28522SOL    HW187573   6.096  10.102   7.159
28522SOL    HW287574   6.043   9.964   7.181
28523SOL     OW87575   7.204  10.077   7.273
28523SOL    HW187576   7.114  10.114   7.269
28523SOL    HW287577   7.245  10.116   7.193
28524SOL     OW87578   6.591   9.427   7.349
28524SOL    HW187579   6.640   9.503   7.314
28524SOL    HW287580   6.634   9.353   7.304
28525SOL     OW87581   6.097   9.320   7.344
28525SOL    HW187582   6.055   9.271   7.270
28525SOL    HW287583   6.036   9.395   7.353
28526SOL     OW87584   6.178  10.198   6.631
28526SOL    HW187585   6.208  10.290   6.636
28526SOL    HW287586   6.127  10.184   6.712
28527SOL     OW87587   6.949  10.183   6.610
28527SOL    HW187588   6.870  10.142   6.573
28527SOL    HW287589   7.008  10.108   6.618
28528SOL     OW87590   6.813   9.833   5.858
28528SOL    HW187591   6.819   9.759   5.920
28528SOL    HW287592   6.748   9.889   5.904
28529SOL     OW87593   5.882   9.511   6.828
28529SOL    HW187594   5.838   9.540   6.910
28529SOL    HW287595   5.860   9.416   6.827
28530SOL     OW87596   5.620  10.608   6.858
28530SOL    HW187597   5.654  10.556   6.932
28530SOL    HW287598   5.628  10.700   6.890
28531SOL     OW87599   6.303   9.952   6.617
28531SOL    HW187600   6.388   9.937   6.573
28531SOL    HW287601   6.282  10.047   6.603
28532SOL     OW87602   7.354  10.259   7.422
28532SOL    HW187603   7.299  10.197   7.372
28532SOL    HW287604   7.293  10.290   7.490
28533SOL     OW87605   5.893   9.384   6.194
28533SOL    HW187606   5.864   9.474   6.215
28533SOL    HW287607   5.894   9.342   6.282
28534SOL     OW87608   7.191   9.681   5.924
28534SOL    HW187609   7.218   9.612   5.987
28534SOL    HW287610   7.179   9.760   5.982
28535SOL     OW87611   6.635  10.068   6.559
28535SOL    HW187612   6.613  10.079   6.654
28535SOL    HW287613   6.609   9.974   6.545
28536SOL     OW87614   6.594  10.876   7.288
28536SOL    HW187615   6.501  10.882   7.265
28536SOL    HW287616   6.616  10.786   7.260
28537SOL     OW87617   7.428  10.838   7.182
28537SOL    HW187618   7.479  10.847   7.099
28537SOL    HW287619   7.502  10.836   7.247
28538SOL     OW87620   5.927  10.179   7.420
28538SOL    HW187621   5.994  10.249   7.417
28538SOL    HW287622   5.962  10.118   7.351
28539SOL     OW87623   7.087   9.559   5.711
28539SOL    HW187624   7.023   9.497   5.750
28539SOL    HW287625   7.129   9.602   5.789
28540SOL     OW87626   6.860  10.146   5.609
28540SOL    HW187627   6.903  10.061   5.624
28540SOL    HW287628   6.893  10.169   5.520
28541SOL     OW87629   6.681  10.642   6.436
28541SOL    HW187630   6.677  10.566   6.374
28541SOL    HW287631   6.739  10.706   6.391
28542SOL     OW87632   5.874  10.122   6.585
28542SOL    HW187633   5.968  10.143   6.578
28542SOL    HW287634   5.877  10.026   6.604
28543SOL     OW87635   5.900   9.844   6.587
28543SOL    HW187636   5.875   9.751   6.569
28543SOL    HW287637   5.973   9.855   6.523
28544SOL     OW87638   6.737   9.678   7.276
28544SOL    HW187639   6.691   9.735   7.341
28544SOL    HW287640   6.824   9.720   7.270
28545SOL     OW87641   6.754   9.510   7.070
28545SOL    HW187642   6.746   9.577   7.142
28545SOL    HW287643   6.795   9.562   7.000
28546SOL     OW87644   5.592  10.629   5.759
28546SOL    HW187645   5.500  10.653   5.733
28546SOL    HW287646   5.578  10.543   5.803
28547SOL     OW87647   6.094  10.907   6.520
28547SOL    HW187648   6.166  10.971   6.527
28547SOL    HW287649   6.132  10.837   6.464
28548SOL     OW87650   6.567  10.078   6.821
28548SOL    HW187651   6.632  10.065   6.891
28548SOL    HW287652   6.488  10.037   6.862
28549SOL     OW87653   5.622   9.825   6.694
28549SOL    HW187654   5.703   9.831   6.640
28549SOL    HW287655   5.657   9.834   6.783
28550SOL     OW87656   5.811   9.831   7.309
28550SOL    HW187657   5.869   9.791   7.243
28550SOL    HW287658   5.757   9.892   7.256
28551SOL     OW87659   6.977  10.223   7.243
28551SOL    HW187660   7.000  10.318   7.243
28551SOL    HW287661   6.956  10.207   7.150
28552SOL     OW87662   6.384   9.868   5.979
28552SOL    HW187663   6.401   9.799   5.912
28552SOL    HW287664   6.314   9.920   5.938
28553SOL     OW87665   7.231   9.940   6.789
28553SOL    HW187666   7.199   9.881   6.859
28553SOL    HW287667   7.312   9.895   6.758
28554SOL     OW87668   5.809  10.840   7.316
28554SOL    HW187669   5.797  10.909   7.383
28554SOL    HW287670   5.823  10.760   7.370
28555SOL     OW87671   6.181   9.803   6.835
28555SOL    HW187672   6.209   9.714   6.808
28555SOL    HW287673   6.240   9.860   6.783
28556SOL     OW87674   6.028   9.779   5.787
28556SOL    HW187675   6.095   9.849   5.793
28556SOL    HW287676   5.948   9.834   5.778
28557SOL     OW87677   5.703  10.447   7.059
28557SOL    HW187678   5.720  10.390   7.137
28557SOL    HW287679   5.726  10.386   6.985
28558SOL     OW87680   6.906  10.345   6.824
28558SOL    HW187681   6.929  10.289   6.747
28558SOL    HW287682   6.831  10.395   6.789
28559SOL     OW87683   6.892  10.184   5.881
28559SOL    HW187684   6.815  10.144   5.923
28559SOL    HW287685   6.871  10.179   5.786
28560SOL     OW87686   7.349  11.022   6.742
28560SOL    HW187687   7.402  11.043   6.665
28560SOL    HW287688   7.319  10.929   6.722
28561SOL     OW87689   6.843  11.029   6.679
28561SOL    HW187690   6.927  11.045   6.633
28561SOL    HW287691   6.851  10.936   6.705
28562SOL     OW87692   5.698  10.574   6.603
28562SOL    HW187693   5.664  10.583   6.695
28562SOL    HW287694   5.625  10.523   6.562
28563SOL     OW87695   6.280  11.011   7.368
28563SOL    HW187696   6.210  11.064   7.329
28563SOL    HW287697   6.287  10.934   7.308
28564SOL     OW87698   7.261   9.453   6.078
28564SOL    HW187699   7.333   9.434   6.017
28564SOL    HW287700   7.262   9.375   6.136
28565SOL     OW87701   6.979  10.874   6.072
28565SOL    HW187702   7.044  10.892   6.000
28565SOL    HW287703   6.933  10.959   6.075
28566SOL     OW87704   5.733   0.007   7.427
28566SOL    HW187705   5.679  11.035   7.461
28566SOL    HW287706   5.782   0.029   7.507
28567SOL     OW87707   6.841  10.220   6.250
28567SOL    HW187708   6.920  10.165   6.271
28567SOL    HW287709   6.882  10.297   6.206
28568SOL     OW87710   6.377  10.587   6.982
28568SOL    HW187711   6.367  10.640   7.064
28568SOL    HW287712   6.285  10.582   6.952
28569SOL     OW87713   6.251  10.932   5.722
28569SOL    HW187714   6.276  10.915   5.629
28569SOL    HW287715   6.189  10.858   5.741
28570SOL     OW87716   7.427   9.471   6.559
28570SOL    HW187717   7.448   9.385   6.518
28570SOL    HW287718   7.340   9.494   6.519
28571SOL     OW87719   5.833   9.633   6.287
28571SOL    HW187720   5.748   9.676   6.270
28571SOL    HW287721   5.839   9.634   6.384
28572SOL     OW87722   6.788  10.935   5.618
28572SOL    HW187723   6.787  10.841   5.643
28572SOL    HW287724   6.724  10.940   5.545
28573SOL     OW87725   6.409  10.317   6.944
28573SOL    HW187726   6.452  10.304   6.859
28573SOL    HW287727   6.403  10.414   6.951
28574SOL     OW87728   6.495  10.238   5.870
28574SOL    HW187729   6.571  10.270   5.818
28574SOL    HW287730   6.527  10.153   5.902
28575SOL     OW87731   7.122  10.958   5.622
28575SOL    HW187732   7.027  10.940   5.615
28575SOL    HW287733   7.149  10.958   5.527
28576SOL     OW87734   5.940  10.592   7.078
28576SOL    HW187735   5.925  10.671   7.025
28576SOL    HW287736   5.859  10.540   7.065
28577SOL     OW87737   7.185  10.593   6.864
28577SOL    HW187738   7.228  10.558   6.943
28577SOL    HW287739   7.140  10.671   6.900
28578SOL     OW87740   6.638  10.415   6.302
28578SOL    HW187741   6.570  10.364   6.350
28578SOL    HW287742   6.694  10.345   6.266
28579SOL     OW87743   6.615   9.536   6.565
28579SOL    HW187744   6.614   9.486   6.481
28579SOL    HW287745   6.616   9.464   6.631
28580SOL     OW87746   6.192  10.817   6.096
28580SOL    HW187747   6.209  10.775   6.011
28580SOL    HW287748   6.133  10.890   6.071
28581SOL     OW87749   7.309   9.681   6.972
28581SOL    HW187750   7.371   9.755   6.955
28581SOL    HW287751   7.342   9.614   6.908
28582SOL     OW87752   5.844  10.661   5.874
28582SOL    HW187753   5.748  10.664   5.859
28582SOL    HW287754   5.850  10.696   5.966
28583SOL     OW87755   5.719  10.306   7.287
28583SOL    HW187756   5.639  10.302   7.344
28583SOL    HW287757   5.786  10.259   7.340
28584SOL     OW87758   6.251   9.484   7.077
28584SOL    HW187759   6.341   9.463   7.046
28584SOL    HW287760   6.269   9.513   7.168
28585SOL     OW87761   5.692   9.646   5.613
28585SOL    HW187762   5.596   9.649   5.601
28585SOL    HW287763   5.720   9.726   5.565
28586SOL     OW87764   7.040  10.156   6.975
28586SOL    HW187765   6.994  10.225   6.923
28586SOL    HW287766   7.133  10.175   6.951
28587SOL     OW87767   5.633   9.472   5.883
28587SOL    HW187768   5.632   9.559   5.841
28587SOL    HW287769   5.717   9.436   5.848
28588SOL     OW87770   6.771  10.638   5.702
28588SOL    HW187771   6.695  10.580   5.715
28588SOL    HW287772   6.806  10.644   5.793
28589SOL     OW87773   6.203  10.142   7.016
28589SOL    HW187774   6.268  10.212   7.000
28589SOL    HW287775   6.263  10.065   7.024
28590SOL     OW87776   7.086  11.059   6.553
28590SOL    HW187777   7.113   0.004   6.473
28590SOL    HW287778   7.171  11.036   6.593
28591SOL     OW87779   6.336   9.834   7.365
28591SOL    HW187780   6.355   9.927   7.388
28591SOL    HW287781   6.343   9.838   7.268
28592SOL     OW87782   7.052  10.478   7.221
28592SOL    HW187783   7.034  10.492   7.317
28592SOL    HW287784   7.149  10.484   7.220
28593SOL     OW87785   7.277  10.209   6.823
28593SOL    HW187786   7.265  10.119   6.787
28593SOL    HW287787   7.248  10.267   6.750
28594SOL     OW87788   6.791   9.636   6.061
28594SOL    HW187789   6.856   9.564   6.055
28594SOL    HW287790   6.830   9.690   6.132
28595SOL     OW87791   6.193  10.030   6.241
28595SOL    HW187792   6.231  10.119   6.236
28595SOL    HW287793   6.115  10.039   6.184
28596SOL     OW87794   7.344   9.678   7.235
28596SOL    HW187795   7.330   9.685   7.138
28596SOL    HW287796   7.263   9.629   7.261
28597SOL     OW87797   7.325  10.225   7.084
28597SOL    HW187798   7.331  10.320   7.100
28597SOL    HW287799   7.332  10.220   6.986
28598SOL     OW87800   6.407  10.684   5.625
28598SOL    HW187801   6.402  10.713   5.718
28598SOL    HW287802   6.463  10.750   5.583
28599SOL     OW87803   6.466  10.256   6.442
28599SOL    HW187804   6.519  10.187   6.486
28599SOL    HW287805   6.433  10.308   6.517
28600SOL     OW87806   6.684  10.329   5.695
28600SOL    HW187807   6.650  10.373   5.615
28600SOL    HW287808   6.738  10.258   5.654
28601SOL     OW87809   7.443  10.904   6.452
28601SOL    HW187810   7.368  10.884   6.395
28601SOL    HW287811   7.466  10.817   6.487
28602SOL     OW87812   5.826  10.619   7.458
28602SOL    HW187813   5.751  10.570   7.421
28602SOL    HW287814   5.807  10.617   7.553
28603SOL     OW87815   5.665  10.569   6.241
28603SOL    HW187816   5.682  10.521   6.324
28603SOL    HW287817   5.715  10.516   6.177
28604SOL     OW87818   7.407   9.479   6.817
28604SOL    HW187819   7.409   9.383   6.825
28604SOL    HW287820   7.417   9.489   6.720
28605SOL     OW87821   6.020   9.754   6.116
28605SOL    HW187822   6.073   9.687   6.072
28605SOL    HW287823   5.974   9.705   6.187
28606SOL     OW87824   7.259  10.785   6.685
28606SOL    HW187825   7.187  10.774   6.621
28606SOL    HW287826   7.254  10.701   6.734
28607SOL     OW87827   5.919   9.843   6.873
28607SOL    HW187828   6.011   9.821   6.898
28607SOL    HW287829   5.923   9.822   6.778
28608SOL     OW87830   6.410  10.892   6.271
28608SOL    HW187831   6.407  10.967   6.209
28608SOL    HW287832   6.320  10.856   6.265
28609SOL     OW87833   7.017   9.552   6.683
28609SOL    HW187834   7.035   9.466   6.721
28609SOL    HW287835   6.965   9.598   6.753
28610SOL     OW87836   6.607   9.315   6.740
28610SOL    HW187837   6.550   9.242   6.710
28610SOL    HW287838   6.696   9.273   6.736
28611SOL     OW87839   6.389  10.650   5.906
28611SOL    HW187840   6.332  10.573   5.888
28611SOL    HW287841   6.447  10.614   5.973
28612SOL     OW87842   6.187  10.850   6.864
28612SOL    HW187843   6.202  10.912   6.937
28612SOL    HW287844   6.276  10.843   6.828
28613SOL     OW87845   6.904   9.338   5.778
28613SOL    HW187846   6.914   9.280   5.701
28613SOL    HW287847   6.813   9.314   5.807
28614SOL     OW87848   6.897   9.789   6.260
28614SOL    HW187849   6.830   9.860   6.267
28614SOL    HW287850   6.879   9.736   6.339
28615SOL     OW87851   7.186   9.515   6.449
28615SOL    HW187852   7.114   9.524   6.513
28615SOL    HW287853   7.179   9.596   6.396
28616SOL     OW87854   5.623  10.376   5.899
28616SOL    HW187855   5.715  10.360   5.871
28616SOL    HW287856   5.594  10.285   5.917
28617SOL     OW87857   5.821   9.950   7.583
28617SOL    HW187858   5.731   9.931   7.616
28617SOL    HW287859   5.817   9.924   7.489
28618SOL     OW87860   5.799   9.593   8.413
28618SOL    HW187861   5.825   9.574   8.504
28618SOL    HW287862   5.711   9.549   8.409
28619SOL     OW87863   5.586   9.708   8.060
28619SOL    HW187864   5.502   9.723   8.109
28619SOL    HW287865   5.572   9.617   8.027
28620SOL     OW87866   6.152  10.580   8.621
28620SOL    HW187867   6.064  10.569   8.581
28620SOL    HW287868   6.146  10.670   8.656
28621SOL     OW87869   7.146  10.853   8.161
28621SOL    HW187870   7.094  10.830   8.240
28621SOL    HW287871   7.086  10.838   8.086
28622SOL     OW87872   6.708   9.991   8.152
28622SOL    HW187873   6.752  10.077   8.136
28622SOL    HW287874   6.669  10.008   8.239
28623SOL     OW87875   7.359   9.909   7.686
28623SOL    HW187876   7.329   9.900   7.593
28623SOL    HW287877   7.294   9.856   7.733
28624SOL     OW87878   6.328  10.446   8.464
28624SOL    HW187879   6.267  10.484   8.530
28624SOL    HW287880   6.372  10.527   8.433
28625SOL     OW87881   6.455  10.086   9.249
28625SOL    HW187882   6.463  10.150   9.320
28625SOL    HW287883   6.490  10.135   9.171
28626SOL     OW87884   6.278  10.332   8.094
28626SOL    HW187885   6.340  10.316   8.167
28626SOL    HW287886   6.206  10.380   8.137
28627SOL     OW87887   6.304  10.443   9.245
28627SOL    HW187888   6.341  10.527   9.279
28627SOL    HW287889   6.220  10.472   9.206
28628SOL     OW87890   5.909  10.753   8.537
28628SOL    HW187891   5.841  10.715   8.479
28628SOL    HW287892   5.963  10.806   8.476
28629SOL     OW87893   7.056  10.801   8.832
28629SOL    HW187894   7.103  10.882   8.856
28629SOL    HW287895   7.000  10.785   8.910
28630SOL     OW87896   6.001   9.705   8.975
28630SOL    HW187897   6.077   9.646   8.967
28630SOL    HW287898   5.925   9.646   8.958
28631SOL     OW87899   7.208   9.760   8.190
28631SOL    HW187900   7.133   9.790   8.135
28631SOL    HW287901   7.207   9.827   8.259
28632SOL     OW87902   6.738  10.657   9.132
28632SOL    HW187903   6.768  10.659   9.224
28632SOL    HW287904   6.694  10.570   9.128
28633SOL     OW87905   5.844  10.762   7.972
28633SOL    HW187906   5.845  10.851   8.010
28633SOL    HW287907   5.779  10.715   8.027
28634SOL     OW87908   5.852  10.395   8.349
28634SOL    HW187909   5.837  10.316   8.404
28634SOL    HW287910   5.804  10.465   8.398
28635SOL     OW87911   6.171  10.294   7.570
28635SOL    HW187912   6.208  10.341   7.491
28635SOL    HW287913   6.211  10.346   7.641
28636SOL     OW87914   7.200   9.418   8.944
28636SOL    HW187915   7.209   9.495   8.887
28636SOL    HW287916   7.206   9.457   9.032
28637SOL     OW87917   5.710   9.950   8.000
28637SOL    HW187918   5.673   9.860   8.014
28637SOL    HW287919   5.707   9.988   8.090
28638SOL     OW87920   5.640  10.904   7.568
28638SOL    HW187921   5.619  10.812   7.590
28638SOL    HW287922   5.592  10.954   7.634
28639SOL     OW87923   7.254  10.221   8.072
28639SOL    HW187924   7.328  10.182   8.023
28639SOL    HW287925   7.225  10.290   8.011
28640SOL     OW87926   7.235  10.435   7.898
28640SOL    HW187927   7.325  10.425   7.862
28640SOL    HW287928   7.250  10.497   7.973
28641SOL     OW87929   5.699  10.044   9.038
28641SOL    HW187930   5.784  10.084   9.057
28641SOL    HW287931   5.638  10.118   9.048
28642SOL     OW87932   6.181  10.704   8.211
28642SOL    HW187933   6.142  10.614   8.220
28642SOL    HW287934   6.174  10.716   8.114
28643SOL     OW87935   6.885  10.549   8.874
28643SOL    HW187936   6.918  10.484   8.809
28643SOL    HW287937   6.939  10.528   8.952
28644SOL     OW87938   6.408   9.304   7.950
28644SOL    HW187939   6.443   9.395   7.943
28644SOL    HW287940   6.311   9.320   7.951
28645SOL     OW87941   5.764  10.282   8.690
28645SOL    HW187942   5.856  10.248   8.685
28645SOL    HW287943   5.713  10.207   8.656
28646SOL     OW87944   7.129  10.282   7.644
28646SOL    HW187945   7.048  10.236   7.676
28646SOL    HW287946   7.169  10.312   7.727
28647SOL     OW87947   6.793   0.004   9.080
28647SOL    HW187948   6.783   0.072   9.011
28647SOL    HW287949   6.813  11.027   9.027
28648SOL     OW87950   5.932   9.539   9.241
28648SOL    HW187951   5.994   9.609   9.263
28648SOL    HW287952   5.850   9.569   9.283
28649SOL     OW87953   7.030  10.743   8.395
28649SOL    HW187954   6.983  10.743   8.481
28649SOL    HW287955   7.022  10.650   8.368
28650SOL     OW87956   6.858   9.626   8.348
28650SOL    HW187957   6.767   9.603   8.374
28650SOL    HW287958   6.909   9.600   8.427
28651SOL     OW87959   7.154  10.942   7.760
28651SOL    HW187960   7.227  10.997   7.789
28651SOL    HW287961   7.147  10.965   7.665
28652SOL     OW87962   6.381   9.939   8.911
28652SOL    HW187963   6.369   9.903   9.002
28652SOL    HW287964   6.340   9.869   8.857
28653SOL     OW87965   6.979   9.785   9.129
28653SOL    HW187966   6.989   9.843   9.206
28653SOL    HW287967   7.039   9.711   9.152
28654SOL     OW87968   6.547  10.205   9.025
28654SOL    HW187969   6.585  10.122   8.988
28654SOL    HW287970   6.496  10.239   8.949
28655SOL     OW87971   6.544   9.723   8.688
28655SOL    HW187972   6.452   9.727   8.717
28655SOL    HW287973   6.539   9.676   8.604
28656SOL     OW87974   6.607  10.007   7.863
28656SOL    HW187975   6.628  10.015   7.958
28656SOL    HW287976   6.525   9.954   7.863
28657SOL     OW87977   5.701  10.110   8.221
28657SOL    HW187978   5.764  10.107   8.296
28657SOL    HW287979   5.652  10.191   8.236
28658SOL     OW87980   5.667   0.055   9.043
28658SOL    HW187981   5.675  11.062   9.057
28658SOL    HW287982   5.600   0.059   8.973
28659SOL     OW87983   6.473   9.677   7.664
28659SOL    HW187984   6.493   9.732   7.586
28659SOL    HW287985   6.505   9.591   7.632
28660SOL     OW87986   7.307   9.886   9.286
28660SOL    HW187987   7.269   9.963   9.238
28660SOL    HW287988   7.337   9.831   9.212
28661SOL     OW87989   6.945  10.457   7.999
28661SOL    HW187990   7.029  10.452   7.951
28661SOL    HW287991   6.895  10.520   7.946
28662SOL     OW87992   6.142   9.503   8.355
28662SOL    HW187993   6.146   9.526   8.450
28662SOL    HW287994   6.136   9.589   8.312
28663SOL     OW87995   6.592  10.802   7.938
28663SOL    HW187996   6.519  10.787   7.876
28663SOL    HW287997   6.550  10.785   8.023
28664SOL     OW87998   5.934   0.002   8.323
28664SOL    HW187999   5.990  11.026   8.345
28664SOL    HW288000   5.998   0.075   8.324
28665SOL     OW88001   7.390  10.373   8.345
28665SOL    HW188002   7.345  10.367   8.260
28665SOL    HW288003   7.316  10.371   8.409
28666SOL     OW88004   6.795  10.868   8.955
28666SOL    HW188005   6.796  10.789   9.011
28666SOL    HW288006   6.748  10.837   8.877
28667SOL     OW88007   5.906  10.261   7.687
28667SOL    HW188008   5.947  10.320   7.622
28667SOL    HW288009   5.866  10.194   7.628
28668SOL     OW88010   7.062  10.055   8.169
28668SOL    HW188011   7.058  10.031   8.264
28668SOL    HW288012   7.138  10.116   8.165
28669SOL     OW88013   6.061  10.548   9.169
28669SOL    HW188014   6.014  10.565   9.084
28669SOL    HW288015   5.989  10.563   9.233
28670SOL     OW88016   6.660  11.060   7.701
28670SOL    HW188017   6.581  11.015   7.731
28670SOL    HW288018   6.667  11.030   7.609
28671SOL     OW88019   5.756   9.593   8.954
28671SOL    HW188020   5.676   9.634   8.992
28671SOL    HW288021   5.746   9.501   8.982
28672SOL     OW88022   7.198  10.704   7.528
28672SOL    HW188023   7.142  10.779   7.552
28672SOL    HW288024   7.133  10.632   7.517
28673SOL     OW88025   6.983   9.417   7.888
28673SOL    HW188026   6.975   9.388   7.795
28673SOL    HW288027   7.078   9.434   7.898
28674SOL     OW88028   5.986  10.012   7.911
28674SOL    HW188029   6.006   9.918   7.931
28674SOL    HW288030   5.890  10.011   7.929
28675SOL     OW88031   7.126   9.564   9.181
28675SOL    HW188032   7.123   9.564   9.280
28675SOL    HW288033   7.063   9.493   9.162
28676SOL     OW88034   6.204   9.435   7.561
28676SOL    HW188035   6.299   9.420   7.552
28676SOL    HW288036   6.170   9.392   7.481
28677SOL     OW88037   6.360   9.574   9.182
28677SOL    HW188038   6.442   9.521   9.194
28677SOL    HW288039   6.308   9.548   9.259
28678SOL     OW88040   6.491  10.853   8.602
28678SOL    HW188041   6.469  10.800   8.524
28678SOL    HW288042   6.535  10.790   8.661
28679SOL     OW88043   6.914   9.898   8.886
28679SOL    HW188044   6.955   9.867   8.970
28679SOL    HW288045   6.968   9.976   8.864
28680SOL     OW88046   6.416  10.696   8.385
28680SOL    HW188047   6.501  10.688   8.337
28680SOL    HW288048   6.350  10.699   8.314
28681SOL     OW88049   6.523   9.825   8.351
28681SOL    HW188050   6.503   9.813   8.255
28681SOL    HW288051   6.548   9.734   8.376
28682SOL     OW88052   6.139   9.358   7.950
28682SOL    HW188053   6.061   9.366   8.007
28682SOL    HW288054   6.127   9.436   7.891
28683SOL     OW88055   7.028  10.492   7.490
28683SOL    HW188056   7.057  10.415   7.544
28683SOL    HW288057   6.935  10.502   7.515
28684SOL     OW88058   5.866   9.344   7.627
28684SOL    HW188059   5.924   9.411   7.590
28684SOL    HW288060   5.930   9.283   7.670
28685SOL     OW88061   6.519   9.554   7.948
28685SOL    HW188062   6.497   9.601   7.866
28685SOL    HW288063   6.615   9.573   7.954
28686SOL     OW88064   6.668   9.990   8.921
28686SOL    HW188065   6.611   9.912   8.923
28686SOL    HW288066   6.758   9.953   8.917
28687SOL     OW88067   6.810  10.936   8.195
28687SOL    HW188068   6.881  10.940   8.129
28687SOL    HW288069   6.860  10.933   8.278
28688SOL     OW88070   6.054  10.469   8.185
28688SOL    HW188071   5.984  10.442   8.248
28688SOL    HW288072   6.013  10.444   8.099
28689SOL     OW88073   6.640   9.850   7.465
28689SOL    HW188074   6.589   9.931   7.448
28689SOL    HW288075   6.713   9.879   7.520
28690SOL     OW88076   5.636   9.872   8.841
28690SOL    HW188077   5.730   9.859   8.823
28690SOL    HW288078   5.639   9.945   8.905
28691SOL     OW88079   6.150   9.546   8.624
28691SOL    HW188080   6.194   9.471   8.666
28691SOL    HW288081   6.058   9.535   8.653
28692SOL     OW88082   6.460   9.775   8.100
28692SOL    HW188083   6.397   9.813   8.038
28692SOL    HW288084   6.475   9.686   8.064
28693SOL     OW88085   6.570   9.395   8.222
28693SOL    HW188086   6.540   9.374   8.133
28693SOL    HW288087   6.566   9.309   8.267
28694SOL     OW88088   7.016  10.487   8.327
28694SOL    HW188089   6.947  10.420   8.317
28694SOL    HW288090   7.058  10.485   8.240
28695SOL     OW88091   7.060   9.893   8.429
28695SOL    HW188092   7.007   9.814   8.445
28695SOL    HW288093   7.127   9.889   8.500
28696SOL     OW88094   7.419  10.127   7.851
28696SOL    HW188095   7.480  10.072   7.905
28696SOL    HW288096   7.404  10.067   7.775
28697SOL     OW88097   6.071  10.741   7.633
28697SOL    HW188098   5.995  10.704   7.682
28697SOL    HW288099   6.043  10.724   7.542
28698SOL     OW88100   7.259  10.591   8.129
28698SOL    HW188101   7.357  10.592   8.126
28698SOL    HW288102   7.237  10.684   8.146
28699SOL     OW88103   6.988   9.895   7.516
28699SOL    HW188104   6.934   9.878   7.596
28699SOL    HW288105   7.055   9.826   7.525
28700SOL     OW88106   6.115   9.558   7.775
28700SOL    HW188107   6.149   9.514   7.694
28700SOL    HW288108   6.089   9.644   7.739
28701SOL     OW88109   7.318  10.520   9.032
28701SOL    HW188110   7.411  10.495   9.021
28701SOL    HW288111   7.325  10.612   9.060
28702SOL     OW88112   6.656  10.676   8.796
28702SOL    HW188113   6.575  10.636   8.831
28702SOL    HW288114   6.727  10.622   8.837
28703SOL     OW88115   7.175  10.965   9.081
28703SOL    HW188116   7.181  11.042   9.022
28703SOL    HW288117   7.264  10.925   9.073
28704SOL     OW88118   6.687  10.505   8.552
28704SOL    HW188119   6.641  10.556   8.620
28704SOL    HW288120   6.667  10.557   8.472
28705SOL     OW88121   7.180  10.390   8.522
28705SOL    HW188122   7.188  10.455   8.595
28705SOL    HW288123   7.115  10.433   8.463
28706SOL     OW88124   6.516   9.397   8.844
28706SOL    HW188125   6.545   9.382   8.753
28706SOL    HW288126   6.590   9.446   8.883
28707SOL     OW88127   6.595  10.433   9.190
28707SOL    HW188128   6.501  10.454   9.206
28707SOL    HW288129   6.589  10.361   9.125
28708SOL     OW88130   6.286  10.377   7.811
28708SOL    HW188131   6.285  10.360   7.907
28708SOL    HW288132   6.368  10.331   7.783
28709SOL     OW88133   5.996  10.129   8.717
28709SOL    HW188134   6.068  10.128   8.784
28709SOL    HW288135   5.965  10.037   8.720
28710SOL     OW88136   6.855   9.700   8.716
28710SOL    HW188137   6.871   9.775   8.777
28710SOL    HW288138   6.763   9.716   8.687
28711SOL     OW88139   5.657  10.898   8.802
28711SOL    HW188140   5.629  10.945   8.722
28711SOL    HW288141   5.753  10.889   8.791
28712SOL     OW88142   5.938  10.387   7.950
28712SOL    HW188143   5.939  10.469   7.900
28712SOL    HW288144   5.925  10.320   7.882
28713SOL     OW88145   6.123   9.859   8.299
28713SOL    HW188146   6.154   9.915   8.225
28713SOL    HW288147   6.193   9.872   8.365
28714SOL     OW88148   6.830  10.665   7.835
28714SOL    HW188149   6.889  10.732   7.877
28714SOL    HW288150   6.743  10.702   7.858
28715SOL     OW88151   6.893  10.754   8.627
28715SOL    HW188152   6.950  10.779   8.703
28715SOL    HW288153   6.830  10.692   8.666
28716SOL     OW88154   7.173   9.933   7.935
28716SOL    HW188155   7.127   9.980   8.006
28716SOL    HW288156   7.201  10.006   7.879
28717SOL     OW88157   5.917  10.829   8.785
28717SOL    HW188158   5.906  10.798   8.692
28717SOL    HW288159   6.012  10.844   8.785
28718SOL     OW88160   6.031  10.064   9.101
28718SOL    HW188161   6.085  10.099   9.028
28718SOL    HW288162   6.034   9.969   9.080
28719SOL     OW88163   7.212  10.088   9.134
28719SOL    HW188164   7.121  10.124   9.128
28719SOL    HW288165   7.254  10.129   9.055
28720SOL     OW88166   6.583   9.421   9.211
28720SOL    HW188167   6.650   9.490   9.198
28720SOL    HW288168   6.625   9.347   9.164
28721SOL     OW88169   6.096   9.314   9.207
28721SOL    HW188170   6.051   9.260   9.140
28721SOL    HW288171   6.034   9.390   9.211
28722SOL     OW88172   6.183  10.198   8.492
28722SOL    HW188173   6.216  10.289   8.490
28722SOL    HW288174   6.136  10.192   8.576
28723SOL     OW88175   6.953  10.172   8.468
28723SOL    HW188176   6.865  10.143   8.440
28723SOL    HW288177   6.999  10.088   8.481
28724SOL     OW88178   6.812   9.841   7.725
28724SOL    HW188179   6.809   9.760   7.779
28724SOL    HW288180   6.747   9.897   7.770
28725SOL     OW88181   5.870   9.524   8.689
28725SOL    HW188182   5.827   9.540   8.775
28725SOL    HW288183   5.852   9.429   8.677
28726SOL     OW88184   5.601  10.622   8.732
28726SOL    HW188185   5.646  10.565   8.796
28726SOL    HW288186   5.626  10.712   8.760
28727SOL     OW88187   6.307   9.953   8.500
28727SOL    HW188188   6.386   9.937   8.446
28727SOL    HW288189   6.279  10.045   8.478
28728SOL     OW88190   7.358  10.264   9.287
28728SOL    HW188191   7.315  10.195   9.234
28728SOL    HW288192   7.292  10.278   9.356
28729SOL     OW88193   5.892   9.379   8.063
28729SOL    HW188194   5.852   9.466   8.080
28729SOL    HW288195   5.886   9.336   8.151
28730SOL     OW88196   7.194   9.699   7.800
28730SOL    HW188197   7.228   9.631   7.860
28730SOL    HW288198   7.180   9.775   7.861
28731SOL     OW88199   6.644  10.061   8.419
28731SOL    HW188200   6.627  10.080   8.513
28731SOL    HW288201   6.616   9.968   8.411
28732SOL     OW88202   6.565  10.858   9.151
28732SOL    HW188203   6.595  10.923   9.085
28732SOL    HW288204   6.615  10.778   9.125
28733SOL     OW88205   7.418  10.838   9.049
28733SOL    HW188206   7.450  10.845   8.957
28733SOL    HW288207   7.502  10.838   9.099
28734SOL     OW88208   7.098   9.568   7.574
28734SOL    HW188209   7.026   9.511   7.605
28734SOL    HW288210   7.134   9.607   7.657
28735SOL     OW88211   6.875  10.138   7.471
28735SOL    HW188212   6.925  10.056   7.485
28735SOL    HW288213   6.905  10.164   7.381
28736SOL     OW88214   6.663  10.654   8.288
28736SOL    HW188215   6.666  10.567   8.240
28736SOL    HW288216   6.739  10.701   8.252
28737SOL     OW88217   5.871  10.112   8.436
28737SOL    HW188218   5.963  10.135   8.413
28737SOL    HW288219   5.882  10.020   8.467
28738SOL     OW88220   5.907   9.837   8.450
28738SOL    HW188221   5.873   9.750   8.422
28738SOL    HW288222   5.980   9.849   8.386
28739SOL     OW88223   6.737   9.678   9.141
28739SOL    HW188224   6.693   9.734   9.208
28739SOL    HW288225   6.827   9.717   9.141
28740SOL     OW88226   6.755   9.511   8.929
28740SOL    HW188227   6.747   9.575   9.003
28740SOL    HW288228   6.798   9.565   8.861
28741SOL     OW88229   5.588  10.631   7.637
28741SOL    HW188230   5.498  10.652   7.604
28741SOL    HW288231   5.576  10.540   7.671
28742SOL     OW88232   6.099  10.900   8.380
28742SOL    HW188233   6.177  10.955   8.391
28742SOL    HW288234   6.132  10.828   8.322
28743SOL     OW88235   6.560  10.109   8.705
28743SOL    HW188236   6.616  10.068   8.773
28743SOL    HW288237   6.479  10.057   8.714
28744SOL     OW88238   5.613   9.832   8.557
28744SOL    HW188239   5.692   9.815   8.504
28744SOL    HW288240   5.650   9.849   8.645
28745SOL     OW88241   5.807   9.826   9.171
28745SOL    HW188242   5.854   9.774   9.104
28745SOL    HW288243   5.749   9.884   9.118
28746SOL     OW88244   6.976  10.221   9.093
28746SOL    HW188245   7.003  10.315   9.093
28746SOL    HW288246   6.965  10.203   8.998
28747SOL     OW88247   6.368   9.869   7.815
28747SOL    HW188248   6.410   9.801   7.758
28747SOL    HW288249   6.274   9.850   7.801
28748SOL     OW88250   7.230   9.918   8.639
28748SOL    HW188251   7.208   9.865   8.717
28748SOL    HW288252   7.316   9.881   8.610
28749SOL     OW88253   5.810  10.854   9.198
28749SOL    HW188254   5.866  10.899   9.262
28749SOL    HW288255   5.816  10.761   9.229
28750SOL     OW88256   6.269   9.784   8.715
28750SOL    HW188257   6.218   9.710   8.677
28750SOL    HW288258   6.273   9.848   8.641
28751SOL     OW88259   6.050   9.840   7.656
28751SOL    HW188260   6.073   9.818   7.565
28751SOL    HW288261   5.956   9.866   7.648
28752SOL     OW88262   5.703  10.438   8.906
28752SOL    HW188263   5.725  10.384   8.983
28752SOL    HW288264   5.722  10.377   8.831
28753SOL     OW88265   6.910  10.340   8.685
28753SOL    HW188266   6.933  10.292   8.603
28753SOL    HW288267   6.830  10.388   8.657
28754SOL     OW88268   6.893  10.181   7.737
28754SOL    HW188269   6.812  10.148   7.778
28754SOL    HW288270   6.872  10.179   7.642
28755SOL     OW88271   7.356  11.036   8.613
28755SOL    HW188272   7.397  11.062   8.529
28755SOL    HW288273   7.326  10.945   8.593
28756SOL     OW88274   6.829  11.025   8.527
28756SOL    HW188275   6.918  11.054   8.498
28756SOL    HW288276   6.847  10.933   8.552
28757SOL     OW88277   5.692  10.574   8.472
28757SOL    HW188278   5.651  10.588   8.559
28757SOL    HW288279   5.624  10.522   8.426
28758SOL     OW88280   6.264  10.941   9.179
28758SOL    HW188281   6.207  11.021   9.180
28758SOL    HW288282   6.348  10.975   9.144
28759SOL     OW88283   7.269   9.454   7.944
28759SOL    HW188284   7.340   9.435   7.881
28759SOL    HW288285   7.267   9.373   7.999
28760SOL     OW88286   6.966  10.879   7.942
28760SOL    HW188287   7.040  10.876   7.878
28760SOL    HW288288   6.937  10.971   7.927
28761SOL     OW88289   6.846  10.225   8.122
28761SOL    HW188290   6.924  10.169   8.139
28761SOL    HW288291   6.885  10.299   8.071
28762SOL     OW88292   6.384  10.585   8.846
28762SOL    HW188293   6.357  10.630   8.929
28762SOL    HW288294   6.302  10.591   8.796
28763SOL     OW88295   6.255  10.930   7.618
28763SOL    HW188296   6.265  10.952   7.523
28763SOL    HW288297   6.187  10.859   7.617
28764SOL     OW88298   7.423   9.466   8.423
28764SOL    HW188299   7.449   9.385   8.376
28764SOL    HW288300   7.336   9.490   8.383
28765SOL     OW88301   5.831   9.636   8.146
28765SOL    HW188302   5.740   9.668   8.126
28765SOL    HW288303   5.829   9.631   8.243
28766SOL     OW88304   6.796  10.923   7.475
28766SOL    HW188305   6.781  10.835   7.513
28766SOL    HW288306   6.729  10.926   7.404
28767SOL     OW88307   6.392  10.317   8.814
28767SOL    HW188308   6.451  10.289   8.742
28767SOL    HW288309   6.402  10.414   8.815
28768SOL     OW88310   6.491  10.234   7.727
28768SOL    HW188311   6.568  10.265   7.674
28768SOL    HW288312   6.525  10.150   7.762
28769SOL     OW88313   7.073  10.977   7.503
28769SOL    HW188314   6.982  10.945   7.495
28769SOL    HW288315   7.112  10.951   7.419
28770SOL     OW88316   5.930  10.586   8.943
28770SOL    HW188317   5.926  10.663   8.885
28770SOL    HW288318   5.849  10.537   8.921
28771SOL     OW88319   7.179  10.594   8.720
28771SOL    HW188320   7.231  10.575   8.799
28771SOL    HW288321   7.124  10.669   8.751
28772SOL     OW88322   6.649  10.422   8.168
28772SOL    HW188323   6.581  10.366   8.209
28772SOL    HW288324   6.706  10.356   8.127
28773SOL     OW88325   6.612   9.547   8.439
28773SOL    HW188326   6.590   9.505   8.353
28773SOL    HW288327   6.615   9.467   8.497
28774SOL     OW88328   6.200  10.802   7.956
28774SOL    HW188329   6.245  10.753   7.885
28774SOL    HW288330   6.148  10.866   7.906
28775SOL     OW88331   7.292   9.683   8.831
28775SOL    HW188332   7.354   9.758   8.830
28775SOL    HW288333   7.337   9.620   8.772
28776SOL     OW88334   5.838  10.652   7.735
28776SOL    HW188335   5.743  10.664   7.716
28776SOL    HW288336   5.845  10.694   7.824
28777SOL     OW88337   5.719  10.320   9.188
28777SOL    HW188338   5.621  10.313   9.196
28777SOL    HW288339   5.743  10.300   9.279
28778SOL     OW88340   6.268   9.480   8.934
28778SOL    HW188341   6.356   9.448   8.905
28778SOL    HW288342   6.291   9.528   9.016
28779SOL     OW88343   5.689   9.650   7.476
28779SOL    HW188344   5.594   9.644   7.461
28779SOL    HW288345   5.714   9.724   7.417
28780SOL     OW88346   7.033  10.149   8.829
28780SOL    HW188347   6.988  10.216   8.773
28780SOL    HW288348   7.126  10.175   8.820
28781SOL     OW88349   5.637   9.462   7.719
28781SOL    HW188350   5.634   9.556   7.698
28781SOL    HW288351   5.723   9.434   7.683
28782SOL     OW88352   6.773  10.635   7.564
28782SOL    HW188353   6.676  10.627   7.564
28782SOL    HW288354   6.794  10.639   7.660
28783SOL     OW88355   6.200  10.132   8.881
28783SOL    HW188356   6.257  10.210   8.865
28783SOL    HW288357   6.268  10.062   8.886
28784SOL     OW88358   7.086  11.058   8.415
28784SOL    HW188359   7.115   0.027   8.354
28784SOL    HW288360   7.169  11.016   8.437
28785SOL     OW88361   6.322   9.858   9.160
28785SOL    HW188362   6.364   9.922   9.221
28785SOL    HW288363   6.338   9.772   9.200
28786SOL     OW88364   7.055  10.476   9.084
28786SOL    HW188365   7.042  10.491   9.180
28786SOL    HW288366   7.152  10.484   9.077
28787SOL     OW88367   7.283  10.178   8.676
28787SOL    HW188368   7.264  10.087   8.646
28787SOL    HW288369   7.238  10.234   8.609
28788SOL     OW88370   6.785   9.631   7.931
28788SOL    HW188371   6.854   9.564   7.922
28788SOL    HW288372   6.824   9.689   8.000
28789SOL     OW88373   6.189  10.036   8.107
28789SOL    HW188374   6.226  10.125   8.102
28789SOL    HW288375   6.112  10.041   8.048
28790SOL     OW88376   7.353   9.681   9.088
28790SOL    HW188377   7.319   9.690   8.997
28790SOL    HW288378   7.278   9.638   9.132
28791SOL     OW88379   7.320  10.231   8.940
28791SOL    HW188380   7.325  10.327   8.946
28791SOL    HW288381   7.335  10.214   8.845
28792SOL     OW88382   6.499  10.735   7.541
28792SOL    HW188383   6.416  10.752   7.586
28792SOL    HW288384   6.477  10.754   7.449
28793SOL     OW88385   6.470  10.260   8.289
28793SOL    HW188386   6.519  10.188   8.333
28793SOL    HW288387   6.439  10.312   8.365
28794SOL     OW88388   6.681  10.310   7.553
28794SOL    HW188389   6.651  10.365   7.479
28794SOL    HW288390   6.742  10.248   7.508
28795SOL     OW88391   7.432  10.946   8.327
28795SOL    HW188392   7.414  10.923   8.235
28795SOL    HW288393   7.469  10.863   8.360
28796SOL     OW88394   5.840  10.618   9.319
28796SOL    HW188395   5.762  10.566   9.298
28796SOL    HW288396   5.833  10.622   9.417
28797SOL     OW88397   5.682  10.562   8.091
28797SOL    HW188398   5.703  10.521   8.176
28797SOL    HW288399   5.720  10.499   8.028
28798SOL     OW88400   6.258  10.709   9.050
28798SOL    HW188401   6.202  10.651   9.104
28798SOL    HW288402   6.249  10.794   9.096
28799SOL     OW88403   7.402   9.483   8.684
28799SOL    HW188404   7.431   9.393   8.701
28799SOL    HW288405   7.411   9.491   8.587
28800SOL     OW88406   6.026   9.744   7.976
28800SOL    HW188407   6.061   9.667   7.930
28800SOL    HW288408   5.967   9.705   8.043
28801SOL     OW88409   7.274  10.791   8.549
28801SOL    HW188410   7.200  10.778   8.488
28801SOL    HW288411   7.266  10.713   8.607
28802SOL     OW88412   5.912   9.856   8.742
28802SOL    HW188413   5.972   9.803   8.798
28802SOL    HW288414   5.927   9.821   8.653
28803SOL     OW88415   6.416  10.900   8.128
28803SOL    HW188416   6.375  10.954   8.058
28803SOL    HW288417   6.342  10.843   8.153
28804SOL     OW88418   7.016   9.564   8.559
28804SOL    HW188419   7.052   9.494   8.613
28804SOL    HW288420   6.961   9.614   8.623
28805SOL     OW88421   6.610   9.320   8.596
28805SOL    HW188422   6.550   9.246   8.578
28805SOL    HW288423   6.697   9.276   8.593
28806SOL     OW88424   6.377  10.650   7.789
28806SOL    HW188425   6.304  10.596   7.756
28806SOL    HW288426   6.443  10.582   7.806
28807SOL     OW88427   6.184  10.855   8.708
28807SOL    HW188428   6.194  10.941   8.750
28807SOL    HW288429   6.274  10.838   8.677
28808SOL     OW88430   6.916   9.340   7.618
28808SOL    HW188431   6.916   9.286   7.538
28808SOL    HW288432   6.829   9.313   7.656
28809SOL     OW88433   6.893   9.789   8.130
28809SOL    HW188434   6.832   9.864   8.132
28809SOL    HW288435   6.871   9.741   8.212
28810SOL     OW88436   7.185   9.514   8.308
28810SOL    HW188437   7.103   9.531   8.357
28810SOL    HW288438   7.192   9.595   8.255
28811SOL     OW88439   5.627  10.377   7.765
28811SOL    HW188440   5.716  10.359   7.734
28811SOL    HW288441   5.596  10.288   7.791
28812SOL     OW88442   5.829   9.965   9.424
28812SOL    HW188443   5.749   9.935   9.471
28812SOL    HW288444   5.829   9.911   9.343
28813SOL     OW88445   5.806   9.594  10.271
28813SOL    HW188446   5.827   9.574  10.364
28813SOL    HW288447   5.719   9.550  10.262
28814SOL     OW88448   5.581   9.717   9.930
28814SOL    HW188449   5.500   9.734   9.983
28814SOL    HW288450   5.558   9.633   9.888
28815SOL     OW88451   6.156  10.584  10.449
28815SOL    HW188452   6.064  10.565  10.427
28815SOL    HW288453   6.147  10.666  10.499
28816SOL     OW88454   7.144  10.850  10.026
28816SOL    HW188455   7.089  10.830  10.104
28816SOL    HW288456   7.080  10.859   9.953
28817SOL     OW88457   6.705   9.995  10.001
28817SOL    HW188458   6.758  10.077   9.992
28817SOL    HW288459   6.652  10.015  10.080
28818SOL     OW88460   7.368   9.920   9.545
28818SOL    HW188461   7.345   9.907   9.451
28818SOL    HW288462   7.318   9.849   9.588
28819SOL     OW88463   6.363  10.463  10.331
28819SOL    HW188464   6.286  10.498  10.379
28819SOL    HW288465   6.395  10.543  10.286
28820SOL     OW88466   6.440  10.088  11.101
28820SOL    HW188467   6.420  10.151   0.070
28820SOL    HW288468   6.487  10.144  11.037
28821SOL     OW88469   6.285  10.332   9.961
28821SOL    HW188470   6.346  10.319  10.036
28821SOL    HW288471   6.209  10.375  10.003
28822SOL     OW88472   5.906  10.751  10.392
28822SOL    HW188473   5.834  10.718  10.335
28822SOL    HW288474   5.961  10.804  10.331
28823SOL     OW88475   7.055  10.793  10.667
28823SOL    HW188476   7.088  10.875  10.707
28823SOL    HW288477   6.996  10.758  10.736
28824SOL     OW88478   6.046   9.698  10.785
28824SOL    HW188479   6.121   9.637  10.795
28824SOL    HW288480   5.969   9.642  10.800
28825SOL     OW88481   7.214   9.763  10.057
28825SOL    HW188482   7.148   9.807  10.000
28825SOL    HW288483   7.193   9.804  10.142
28826SOL     OW88484   5.818  10.779   9.816
28826SOL    HW188485   5.848  10.857   9.864
28826SOL    HW288486   5.771  10.728   9.885
28827SOL     OW88487   5.851  10.410  10.204
28827SOL    HW188488   5.853  10.331  10.259
28827SOL    HW288489   5.798  10.472  10.258
28828SOL     OW88490   6.162  10.300   9.415
28828SOL    HW188491   6.221  10.341   9.348
28828SOL    HW288492   6.200  10.336   9.497
28829SOL     OW88493   7.185   9.427  10.794
28829SOL    HW188494   7.168   9.512  10.751
28829SOL    HW288495   7.132   9.432  10.874
28830SOL     OW88496   5.700   9.964   9.878
28830SOL    HW188497   5.666   9.874   9.895
28830SOL    HW288498   5.695  10.005   9.966
28831SOL     OW88499   5.642  10.933   9.436
28831SOL    HW188500   5.640  10.837   9.423
28831SOL    HW288501   5.574  10.944   9.504
28832SOL     OW88502   7.249  10.229   9.952
28832SOL    HW188503   7.321  10.183   9.906
28832SOL    HW288504   7.222  10.293   9.886
28833SOL     OW88505   7.239  10.438   9.760
28833SOL    HW188506   7.330  10.424   9.728
28833SOL    HW288507   7.252  10.503   9.832
28834SOL     OW88508   5.699  10.069  10.899
28834SOL    HW188509   5.793  10.062  10.920
28834SOL    HW288510   5.679  10.153  10.944
28835SOL     OW88511   6.167  10.708  10.061
28835SOL    HW188512   6.137  10.616  10.070
28835SOL    HW288513   6.164  10.719   9.964
28836SOL     OW88514   6.890  10.573  10.742
28836SOL    HW188515   6.916  10.508  10.674
28836SOL    HW288516   6.931  10.536  10.822
28837SOL     OW88517   6.419   9.307   9.811
28837SOL    HW188518   6.447   9.400   9.806
28837SOL    HW288519   6.323   9.315   9.829
28838SOL     OW88520   5.789  10.280  10.553
28838SOL    HW188521   5.867  10.225  10.572
28838SOL    HW288522   5.717  10.216  10.547
28839SOL     OW88523   7.118  10.299   9.517
28839SOL    HW188524   7.040  10.250   9.552
28839SOL    HW288525   7.164  10.326   9.597
28840SOL     OW88526   6.823   0.006  10.902
28840SOL    HW188527   6.779   0.067  10.841
28840SOL    HW288528   6.826  11.025  10.851
28841SOL     OW88529   5.944   9.547  11.093
28841SOL    HW188530   5.998   9.616   0.034
28841SOL    HW288531   5.855   9.587  -0.000
28842SOL     OW88532   7.072  10.730  10.286
28842SOL    HW188533   6.996  10.741  10.346
28842SOL    HW288534   7.052  10.645  10.243
28843SOL     OW88535   6.155  10.012   9.562
28843SOL    HW188536   6.185  10.103   9.549
28843SOL    HW288537   6.096  10.018   9.640
28844SOL     OW88538   6.868   9.641  10.222
28844SOL    HW188539   6.776   9.613  10.240
28844SOL    HW288540   6.914   9.609  10.302
28845SOL     OW88541   7.159  10.938   9.612
28845SOL    HW188542   7.202  11.021   9.638
28845SOL    HW288543   7.152  10.946   9.515
28846SOL     OW88544   6.385   9.943  10.781
28846SOL    HW188545   6.364   9.901  10.867
28846SOL    HW288546   6.345   9.881  10.716
28847SOL     OW88547   6.585  10.210  10.887
28847SOL    HW188548   6.615  10.126  10.846
28847SOL    HW288549   6.528  10.249  10.818
28848SOL     OW88550   6.550   9.726  10.541
28848SOL    HW188551   6.478   9.723  10.605
28848SOL    HW288552   6.537   9.645  10.489
28849SOL     OW88553   6.623  10.013   9.716
28849SOL    HW188554   6.647  10.021   9.810
28849SOL    HW288555   6.540   9.961   9.721
28850SOL     OW88556   5.685  10.119  10.105
28850SOL    HW188557   5.769  10.125  10.155
28850SOL    HW288558   5.640  10.201  10.130
28851SOL     OW88559   5.700   0.035  10.898
28851SOL    HW188560   5.681  11.091  10.982
28851SOL    HW288561   5.615   0.029  10.853
28852SOL     OW88562   6.468   9.690   9.514
28852SOL    HW188563   6.509   9.744   9.444
28852SOL    HW288564   6.500   9.602   9.490
28853SOL     OW88565   6.954  10.459   9.867
28853SOL    HW188566   7.035  10.464   9.814
28853SOL    HW288567   6.896  10.521   9.821
28854SOL     OW88568   6.139   9.510  10.205
28854SOL    HW188569   6.140   9.523  10.302
28854SOL    HW288570   6.124   9.600  10.172
28855SOL     OW88571   6.576  10.742   9.791
28855SOL    HW188572   6.527  10.806   9.740
28855SOL    HW288573   6.551  10.765   9.882
28856SOL     OW88574   5.928   0.003  10.180
28856SOL    HW188575   5.980  11.028  10.213
28856SOL    HW288576   5.994   0.074  10.183
28857SOL     OW88577   7.407  10.364  10.174
28857SOL    HW188578   7.344  10.351  10.101
28857SOL    HW288579   7.348  10.360  10.251
28858SOL     OW88580   6.806  10.866  10.780
28858SOL    HW188581   6.815  10.793  10.843
28858SOL    HW288582   6.745  10.828  10.715
28859SOL     OW88583   5.895  10.246   9.504
28859SOL    HW188584   5.975  10.270   9.554
28859SOL    HW288585   5.870  10.159   9.540
28860SOL     OW88586   7.065  10.052  10.032
28860SOL    HW188587   7.078  10.015  10.121
28860SOL    HW288588   7.141  10.114  10.024
28861SOL     OW88589   6.043  10.567  11.043
28861SOL    HW188590   6.013  10.589  10.952
28861SOL    HW288591   5.985  10.493  11.064
28862SOL     OW88592   6.648  11.085   9.550
28862SOL    HW188593   6.616  11.023   9.616
28862SOL    HW288594   6.681  11.029   9.478
28863SOL     OW88595   5.749   9.595  10.773
28863SOL    HW188596   5.717   9.674  10.818
28863SOL    HW288597   5.732   9.525  10.838
28864SOL     OW88598   7.206  10.687   9.399
28864SOL    HW188599   7.156  10.769   9.391
28864SOL    HW288600   7.140  10.619   9.374
28865SOL     OW88601   6.990   9.403   9.746
28865SOL    HW188602   6.989   9.361   9.659
28865SOL    HW288603   7.084   9.423   9.759
28866SOL     OW88604   5.941  10.017   9.749
28866SOL    HW188605   5.976   9.931   9.781
28866SOL    HW288606   5.850  10.009   9.781
28867SOL     OW88607   6.221   9.446   9.402
28867SOL    HW188608   6.291   9.389   9.436
28867SOL    HW288609   6.175   9.386   9.339
28868SOL     OW88610   6.355   9.556  11.027
28868SOL    HW188611   6.445   9.554  11.062
28868SOL    HW288612   6.315   9.632  11.073
28869SOL     OW88613   6.479  10.840  10.514
28869SOL    HW188614   6.469  10.798  10.427
28869SOL    HW288615   6.544  10.783  10.560
28870SOL     OW88616   6.929   9.904  10.728
28870SOL    HW188617   6.987   9.861  10.792
28870SOL    HW288618   6.972   9.991  10.716
28871SOL     OW88619   6.428  10.722  10.260
28871SOL    HW188620   6.516  10.714  10.219
28871SOL    HW288621   6.371  10.725  10.181
28872SOL     OW88622   6.525   9.840  10.211
28872SOL    HW188623   6.509   9.820  10.115
28872SOL    HW288624   6.545   9.751  10.245
28873SOL     OW88625   6.143   9.353   9.822
28873SOL    HW188626   6.067   9.364   9.881
28873SOL    HW288627   6.133   9.431   9.763
28874SOL     OW88628   7.029  10.495   9.349
28874SOL    HW188629   7.062  10.424   9.408
28874SOL    HW288630   6.935  10.498   9.373
28875SOL     OW88631   5.867   9.349   9.510
28875SOL    HW188632   5.931   9.418   9.488
28875SOL    HW288633   5.927   9.281   9.546
28876SOL     OW88634   6.522   9.559   9.800
28876SOL    HW188635   6.503   9.613   9.721
28876SOL    HW288636   6.618   9.570   9.806
28877SOL     OW88637   6.685   9.992  10.757
28877SOL    HW188638   6.633   9.911  10.764
28877SOL    HW288639   6.776   9.957  10.751
28878SOL     OW88640   6.821  10.867  10.117
28878SOL    HW188641   6.792  10.943  10.065
28878SOL    HW288642   6.877  10.909  10.184
28879SOL     OW88643   6.059  10.457  10.049
28879SOL    HW188644   5.985  10.440  10.112
28879SOL    HW288645   6.013  10.443   9.964
28880SOL     OW88646   6.639   9.841   9.339
28880SOL    HW188647   6.604   9.930   9.321
28880SOL    HW288648   6.711   9.856   9.402
28881SOL     OW88649   5.661   9.887  10.701
28881SOL    HW188650   5.757   9.882  10.687
28881SOL    HW288651   5.654   9.961  10.764
28882SOL     OW88652   6.157   9.532  10.471
28882SOL    HW188653   6.198   9.460  10.522
28882SOL    HW288654   6.066   9.530  10.505
28883SOL     OW88655   6.473   9.769   9.964
28883SOL    HW188656   6.417   9.815   9.901
28883SOL    HW288657   6.488   9.683   9.922
28884SOL     OW88658   6.626   9.377  10.061
28884SOL    HW188659   6.573   9.361   9.982
28884SOL    HW288660   6.600   9.303  10.119
28885SOL     OW88661   7.020  10.486  10.196
28885SOL    HW188662   6.948  10.423  10.211
28885SOL    HW288663   7.023  10.489  10.099
28886SOL     OW88664   7.091   9.882  10.272
28886SOL    HW188665   7.021   9.819  10.293
28886SOL    HW288666   7.137   9.891  10.357
28887SOL     OW88667   7.416  10.134   9.715
28887SOL    HW188668   7.475  10.078   9.770
28887SOL    HW288669   7.409  10.080   9.634
28888SOL     OW88670   6.073  10.738   9.464
28888SOL    HW188671   6.003  10.695   9.516
28888SOL    HW288672   6.049  10.713   9.374
28889SOL     OW88673   7.274  10.607   9.975
28889SOL    HW188674   7.369  10.621   9.986
28889SOL    HW288675   7.235  10.694   9.995
28890SOL     OW88676   6.998   9.913   9.377
28890SOL    HW188677   6.951   9.876   9.455
28890SOL    HW288678   7.089   9.883   9.393
28891SOL     OW88679   6.108   9.538   9.628
28891SOL    HW188680   6.156   9.512   9.546
28891SOL    HW288681   6.069   9.622   9.598
28892SOL     OW88682   7.353  10.535  10.894
28892SOL    HW188683   7.446  10.515  10.875
28892SOL    HW288684   7.358  10.625  10.931
28893SOL     OW88685   6.624  10.675  10.679
28893SOL    HW188686   6.543  10.630  10.710
28893SOL    HW288687   6.695  10.613  10.703
28894SOL     OW88688   6.699  10.523  10.432
28894SOL    HW188689   6.623  10.557  10.481
28894SOL    HW288690   6.682  10.556  10.342
28895SOL     OW88691   7.209  10.398  10.379
28895SOL    HW188692   7.205  10.461  10.454
28895SOL    HW288693   7.145  10.437  10.316
28896SOL     OW88694   6.499   9.412  10.670
28896SOL    HW188695   6.543   9.383  10.588
28896SOL    HW288696   6.573   9.450  10.723
28897SOL     OW88697   6.273  10.384   9.648
28897SOL    HW188698   6.278  10.368   9.743
28897SOL    HW288699   6.348  10.328   9.617
28898SOL     OW88700   6.011  10.125  10.580
28898SOL    HW188701   6.084  10.133  10.644
28898SOL    HW288702   5.981  10.033  10.594
28899SOL     OW88703   6.844   9.726  10.526
28899SOL    HW188704   6.861   9.770  10.611
28899SOL    HW288705   6.747   9.716  10.528
28900SOL     OW88706   5.649  10.897  10.670
28900SOL    HW188707   5.626  10.945  10.589
28900SOL    HW288708   5.745  10.882  10.662
28901SOL     OW88709   5.953  10.397   9.808
28901SOL    HW188710   5.995  10.459   9.746
28901SOL    HW288711   5.982  10.310   9.780
28902SOL     OW88712   6.118   9.854  10.146
28902SOL    HW188713   6.152   9.916  10.078
28902SOL    HW288714   6.184   9.860  10.217
28903SOL     OW88715   6.831  10.665   9.700
28903SOL    HW188716   6.884  10.736   9.741
28903SOL    HW288717   6.740  10.690   9.727
28904SOL     OW88718   6.873  10.765  10.467
28904SOL    HW188719   6.936  10.777  10.541
28904SOL    HW288720   6.830  10.681  10.487
28905SOL     OW88721   7.170   9.926   9.783
28905SOL    HW188722   7.123   9.982   9.847
28905SOL    HW288723   7.208   9.990   9.722
28906SOL     OW88724   5.916  10.837  10.642
28906SOL    HW188725   5.911  10.801  10.551
28906SOL    HW288726   6.012  10.848  10.653
28907SOL     OW88727   6.031  10.032  10.904
28907SOL    HW188728   6.098  10.079  10.851
28907SOL    HW288729   6.050   9.939  10.884
28908SOL     OW88730   7.216  10.076  11.006
28908SOL    HW188731   7.124  10.095  10.985
28908SOL    HW288732   7.264  10.130  10.942
28909SOL     OW88733   6.149  10.207  10.350
28909SOL    HW188734   6.200  10.289  10.358
28909SOL    HW288735   6.115  10.191  10.441
28910SOL     OW88736   6.929  10.183  10.336
28910SOL    HW188737   6.856  10.141  10.289
28910SOL    HW288738   6.990  10.109  10.347
28911SOL     OW88739   6.810   9.835   9.571
28911SOL    HW188740   6.808   9.759   9.632
28911SOL    HW288741   6.759   9.901   9.620
28912SOL     OW88742   5.865   9.519  10.530
28912SOL    HW188743   5.825   9.551  10.613
28912SOL    HW288744   5.852   9.422  10.538
28913SOL     OW88745   5.601  10.635  10.591
28913SOL    HW188746   5.651  10.576  10.651
28913SOL    HW288747   5.605  10.720  10.638
28914SOL     OW88748   6.295   9.959  10.345
28914SOL    HW188749   6.375   9.950  10.292
28914SOL    HW288750   6.261  10.048  10.326
28915SOL     OW88751   5.886   9.371   9.925
28915SOL    HW188752   5.860   9.462   9.949
28915SOL    HW288753   5.895   9.329  10.013
28916SOL     OW88754   7.183   9.687   9.665
28916SOL    HW188755   7.214   9.619   9.727
28916SOL    HW288756   7.174   9.767   9.721
28917SOL     OW88757   6.631  10.072  10.265
28917SOL    HW188758   6.622  10.082  10.361
28917SOL    HW288759   6.604   9.978  10.252
28918SOL     OW88760   6.596  10.844  10.974
28918SOL    HW188761   6.577  10.897  10.895
28918SOL    HW288762   6.549  10.762  10.959
28919SOL     OW88763   7.409  10.837  10.920
28919SOL    HW188764   7.445  10.850  10.830
28919SOL    HW288765   7.489  10.841  10.974
28920SOL     OW88766   5.973  10.107   0.048
28920SOL    HW188767   6.029  10.186   0.055
28920SOL    HW288768   5.986  10.083  11.055
28921SOL     OW88769   7.089   9.562   9.439
28921SOL    HW188770   7.018   9.502   9.469
28921SOL    HW288771   7.126   9.598   9.523
28922SOL     OW88772   6.882  10.155   9.333
28922SOL    HW188773   6.921  10.066   9.348
28922SOL    HW288774   6.916  10.174   9.243
28923SOL     OW88775   6.671  10.624  10.168
28923SOL    HW188776   6.669  10.555  10.099
28923SOL    HW288777   6.735  10.688  10.134
28924SOL     OW88778   5.919  10.106  10.245
28924SOL    HW188779   6.002  10.143  10.282
28924SOL    HW288780   5.898  10.036  10.308
28925SOL     OW88781   5.921   9.830  10.326
28925SOL    HW188782   5.885   9.745  10.294
28925SOL    HW288783   5.981   9.854  10.253
28926SOL     OW88784   5.592  10.640   9.485
28926SOL    HW188785   5.500  10.666   9.463
28926SOL    HW288786   5.578  10.553   9.526
28927SOL     OW88787   6.096  10.896  10.245
28927SOL    HW188788   6.185  10.933  10.255
28927SOL    HW288789   6.114  10.824  10.181
28928SOL     OW88790   6.563  10.113  10.544
28928SOL    HW188791   6.624  10.072  10.608
28928SOL    HW288792   6.482  10.063  10.562
28929SOL     OW88793   5.624   9.836  10.423
28929SOL    HW188794   5.708   9.831  10.376
28929SOL    HW288795   5.653   9.851  10.515
28930SOL     OW88796   6.391   9.883   9.687
28930SOL    HW188797   6.415   9.812   9.624
28930SOL    HW288798   6.313   9.921   9.646
28931SOL     OW88799   7.243   9.929  10.503
28931SOL    HW188800   7.226   9.855  10.563
28931SOL    HW288801   7.326   9.901  10.460
28932SOL     OW88802   5.819  10.838  11.024
28932SOL    HW188803   5.771  10.893  11.090
28932SOL    HW288804   5.835  10.759  11.077
28933SOL     OW88805   6.279   9.795  10.579
28933SOL    HW188806   6.237   9.713  10.549
28933SOL    HW288807   6.279   9.849  10.498
28934SOL     OW88808   6.024   9.769   9.509
28934SOL    HW188809   6.093   9.837   9.510
28934SOL    HW288810   5.944   9.823   9.511
28935SOL     OW88811   5.756  10.475  10.741
28935SOL    HW188812   5.748  10.434  10.830
28935SOL    HW288813   5.765  10.398  10.682
28936SOL     OW88814   6.904  10.357  10.553
28936SOL    HW188815   6.929  10.300  10.478
28936SOL    HW288816   6.825  10.401  10.517
28937SOL     OW88817   6.892  10.181   9.601
28937SOL    HW188818   6.810  10.146   9.639
28937SOL    HW288819   6.877  10.175   9.505
28938SOL     OW88820   7.368  11.018  10.471
28938SOL    HW188821   7.409  11.038  10.386
28938SOL    HW288822   7.334  10.927  10.455
28939SOL     OW88823   6.828  11.030  10.455
28939SOL    HW188824   6.911  11.054  10.413
28939SOL    HW288825   6.836  10.932  10.459
28940SOL     OW88826   5.691  10.585  10.332
28940SOL    HW188827   5.665  10.602  10.425
28940SOL    HW288828   5.617  10.529  10.302
28941SOL     OW88829   7.265   9.448   9.802
28941SOL    HW188830   7.345   9.433   9.750
28941SOL    HW288831   7.261   9.366   9.857
28942SOL     OW88832   6.972  10.889   9.800
28942SOL    HW188833   7.042  10.887   9.731
28942SOL    HW288834   6.947  10.982   9.796
28943SOL     OW88835   6.857  10.215   9.976
28943SOL    HW188836   6.935  10.160   9.997
28943SOL    HW288837   6.898  10.291   9.929
28944SOL     OW88838   6.377  10.585  10.740
28944SOL    HW188839   6.348  10.634  10.820
28944SOL    HW288840   6.295  10.585  10.689
28945SOL     OW88841   6.248  10.934   9.456
28945SOL    HW188842   6.268  10.927   9.361
28945SOL    HW288843   6.189  10.857   9.469
28946SOL     OW88844   7.432   9.475  10.268
28946SOL    HW188845   7.448   9.383  10.241
28946SOL    HW288846   7.342   9.494  10.233
28947SOL     OW88847   5.832   9.640  10.005
28947SOL    HW188848   5.742   9.674   9.988
28947SOL    HW288849   5.832   9.635  10.102
28948SOL     OW88850   6.786  10.942   9.346
28948SOL    HW188851   6.784  10.848   9.364
28948SOL    HW288852   6.726  10.951   9.270
28949SOL     OW88853   6.425  10.326  10.691
28949SOL    HW188854   6.474  10.307  10.610
28949SOL    HW288855   6.430  10.422  10.701
28950SOL     OW88856   6.474  10.227   9.570
28950SOL    HW188857   6.555  10.251   9.520
28950SOL    HW288858   6.508  10.156   9.626
28951SOL     OW88859   7.111  10.952   9.347
28951SOL    HW188860   7.015  10.943   9.342
28951SOL    HW288861   7.135  10.956   9.252
28952SOL     OW88862   5.974  10.612  10.790
28952SOL    HW188863   5.942  10.689  10.741
28952SOL    HW288864   5.899  10.550  10.776
28953SOL     OW88865   7.192  10.574  10.583
28953SOL    HW188866   7.253  10.568  10.659
28953SOL    HW288867   7.137  10.651  10.608
28954SOL     OW88868   6.626  10.409  10.003
28954SOL    HW188869   6.560  10.357  10.053
28954SOL    HW288870   6.691  10.343   9.978
28955SOL     OW88871   6.614   9.538  10.285
28955SOL    HW188872   6.611   9.494  10.198
28955SOL    HW288873   6.611   9.462  10.345
28956SOL     OW88874   6.198  10.812   9.807
28956SOL    HW188875   6.232  10.772   9.726
28956SOL    HW288876   6.162  10.895   9.775
28957SOL     OW88877   7.287   9.698  10.693
28957SOL    HW188878   7.352   9.770  10.702
28957SOL    HW288879   7.332   9.639  10.629
28958SOL     OW88880   5.848  10.657   9.587
28958SOL    HW188881   5.753  10.668   9.572
28958SOL    HW288882   5.854  10.697   9.678
28959SOL     OW88883   6.266   9.501  10.780
28959SOL    HW188884   6.351   9.481  10.736
28959SOL    HW288885   6.295   9.519  10.872
28960SOL     OW88886   5.690   9.649   9.337
28960SOL    HW188887   5.596   9.642   9.315
28960SOL    HW288888   5.717   9.724   9.281
28961SOL     OW88889   7.027  10.161  10.719
28961SOL    HW188890   6.970  10.227  10.677
28961SOL    HW288891   7.115  10.190  10.688
28962SOL     OW88892   5.634   9.472   9.607
28962SOL    HW188893   5.636   9.561   9.570
28962SOL    HW288894   5.719   9.435   9.576
28963SOL     OW88895   6.774  10.636   9.430
28963SOL    HW188896   6.690  10.589   9.443
28963SOL    HW288897   6.807  10.641   9.521
28964SOL     OW88898   6.223  10.148  10.742
28964SOL    HW188899   6.289  10.218  10.729
28964SOL    HW288900   6.280  10.071  10.761
28965SOL     OW88901   7.086  11.058  10.281
28965SOL    HW188902   7.127  11.099  10.204
28965SOL    HW288903   7.159  11.053  10.344
28966SOL     OW88904   6.314   9.856  11.030
28966SOL    HW188905   6.335   9.942  11.072
28966SOL    HW288906   6.397   9.809  11.041
28967SOL     OW88907   5.989  11.029  10.887
28967SOL    HW188908   5.913  11.083  10.867
28967SOL    HW288909   5.948  10.953  10.931
28968SOL     OW88910   7.260  10.197  10.570
28968SOL    HW188911   7.257  10.102  10.547
28968SOL    HW288912   7.235  10.242  10.488
28969SOL     OW88913   6.793   9.643   9.772
28969SOL    HW188914   6.857   9.571   9.772
28969SOL    HW288915   6.824   9.697   9.848
28970SOL     OW88916   6.191  10.037   9.954
28970SOL    HW188917   6.224  10.128   9.963
28970SOL    HW288918   6.098  10.050   9.931
28971SOL     OW88919   7.355   9.629  10.947
28971SOL    HW188920   7.325   9.637  10.855
28971SOL    HW288921   7.272   9.631  10.996
28972SOL     OW88922   7.337  10.255  10.821
28972SOL    HW188923   7.323  10.349  10.841
28972SOL    HW288924   7.318  10.249  10.725
28973SOL     OW88925   6.413  10.675   9.340
28973SOL    HW188926   6.394  10.698   9.433
28973SOL    HW288927   6.462  10.751   9.307
28974SOL     OW88928   6.460  10.264  10.166
28974SOL    HW188929   6.510  10.191  10.209
28974SOL    HW288930   6.444  10.326  10.240
28975SOL     OW88931   6.669  10.289   9.403
28975SOL    HW188932   6.655  10.351   9.329
28975SOL    HW288933   6.747  10.239   9.372
28976SOL     OW88934   7.401  10.928  10.189
28976SOL    HW188935   7.339  10.892  10.124
28976SOL    HW288936   7.411  10.853  10.249
28977SOL     OW88937   5.686  10.563   9.979
28977SOL    HW188938   5.690  10.520  10.065
28977SOL    HW288939   5.723  10.495   9.921
28978SOL     OW88940   6.256  10.718  10.929
28978SOL    HW188941   6.203  10.654  10.978
28978SOL    HW288942   6.191  10.786  10.907
28979SOL     OW88943   7.407   9.522  10.534
28979SOL    HW188944   7.414   9.428  10.554
28979SOL    HW288945   7.415   9.522  10.437
28980SOL     OW88946   6.012   9.773   9.826
28980SOL    HW188947   6.069   9.702   9.794
28980SOL    HW288948   5.968   9.732   9.903
28981SOL     OW88949   7.308  10.767  10.412
28981SOL    HW188950   7.223  10.751  10.364
28981SOL    HW288951   7.308  10.696  10.478
28982SOL     OW88952   5.935   9.864  10.601
28982SOL    HW188953   5.989   9.803  10.655
28982SOL    HW288954   5.940   9.826  10.511
28983SOL     OW88955   6.422  10.878   9.990
28983SOL    HW188956   6.421  10.957   9.932
28983SOL    HW288957   6.329  10.850   9.989
28984SOL     OW88958   7.015   9.542  10.434
28984SOL    HW188959   7.041   9.477  10.500
28984SOL    HW288960   6.952   9.599  10.484
28985SOL     OW88961   6.602   9.312  10.439
28985SOL    HW188962   6.554   9.235  10.407
28985SOL    HW288963   6.692   9.274  10.454
28986SOL     OW88964   6.377  10.649   9.614
28986SOL    HW188965   6.330  10.564   9.615
28986SOL    HW288966   6.447  10.634   9.680
28987SOL     OW88967   6.202  10.855  10.606
28987SOL    HW188968   6.208  10.947  10.633
28987SOL    HW288969   6.289  10.842  10.566
28988SOL     OW88970   6.900   9.339   9.476
28988SOL    HW188971   6.908   9.266   9.413
28988SOL    HW288972   6.809   9.323   9.511
28989SOL     OW88973   6.877   9.782   9.987
28989SOL    HW188974   6.815   9.857   9.995
28989SOL    HW288975   6.869   9.736  10.073
28990SOL     OW88976   7.180   9.523  10.185
28990SOL    HW188977   7.107   9.534  10.247
28990SOL    HW288978   7.177   9.603  10.130
28991SOL     OW88979   5.624  10.383   9.631
28991SOL    HW188980   5.720  10.376   9.628
28991SOL    HW288981   5.598  10.290   9.646
28992SOL     OW88982   7.693   0.637   0.147
28992SOL    HW188983   7.603   0.613   0.171
28992SOL    HW288984   7.697   0.615   0.054
28993SOL     OW88985   7.656   0.297   0.992
28993SOL    HW188986   7.686   0.284   1.083
28993SOL    HW288987   7.596   0.222   0.980
28994SOL     OW88988   7.471   0.395   0.634
28994SOL    HW188989   7.388   0.405   0.682
28994SOL    HW288990   7.446   0.341   0.558
28995SOL     OW88991   8.023   1.291   1.205
28995SOL    HW188992   7.938   1.292   1.159
28995SOL    HW288993   8.030   1.383   1.235
28996SOL     OW88994   8.983   1.535   0.713
28996SOL    HW188995   8.951   1.497   0.797
28996SOL    HW288996   8.910   1.518   0.651
28997SOL     OW88997   8.571   0.691   0.706
28997SOL    HW188998   8.614   0.778   0.690
28997SOL    HW288999   8.544   0.699   0.799
28998SOL     OW89000   9.217   0.609   0.216
28998SOL    HW189001   9.182   0.611   0.126
28998SOL    HW289002   9.183   0.525   0.251
28999SOL     OW89003   8.194   1.160   1.039
28999SOL    HW189004   8.131   1.207   1.097
28999SOL    HW289005   8.231   1.236   0.990
29000SOL     OW89006   8.334   0.769   1.799
29000SOL    HW189007   8.316   0.834   1.869
29000SOL    HW289008   8.362   0.825   1.724
29001SOL     OW89009   8.138   1.003   0.645
29001SOL    HW189010   8.203   0.988   0.716
29001SOL    HW289011   8.069   1.054   0.691
29002SOL     OW89012   8.149   1.154   1.811
29002SOL    HW189013   8.195   1.237   1.835
29002SOL    HW289014   8.063   1.187   1.779
29003SOL     OW89015   7.777   1.415   1.067
29003SOL    HW189016   7.704   1.372   1.021
29003SOL    HW289017   7.817   1.473   0.999
29004SOL     OW89018   8.916   1.491   1.378
29004SOL    HW189019   8.973   1.571   1.374
29004SOL    HW289020   8.878   1.504   1.467
29005SOL     OW89021   7.886   0.407   1.486
29005SOL    HW189022   7.963   0.347   1.483
29005SOL    HW289023   7.811   0.347   1.495
29006SOL     OW89024   9.036   0.455   0.736
29006SOL    HW189025   8.955   0.485   0.693
29006SOL    HW289026   9.069   0.535   0.777
29007SOL     OW89027   7.679   1.715   0.503
29007SOL    HW189028   7.718   1.797   0.539
29007SOL    HW289029   7.715   1.712   0.413
29008SOL     OW89030   8.568   1.352   1.655
29008SOL    HW189031   8.629   1.352   1.730
29008SOL    HW289032   8.526   1.265   1.666
29009SOL     OW89033   7.695   1.422   0.519
29009SOL    HW189034   7.692   1.517   0.540
29009SOL    HW289035   7.630   1.385   0.582
29010SOL     OW89036   7.717   1.096   0.903
29010SOL    HW189037   7.718   1.015   0.956
29010SOL    HW289038   7.660   1.154   0.958
29011SOL     OW89039   8.045   1.802   1.404
29011SOL    HW189040   7.975   1.772   1.465
29011SOL    HW289041   8.072   1.887   1.443
29012SOL     OW89042   8.040   0.980   0.156
29012SOL    HW189043   8.074   1.047   0.095
29012SOL    HW289044   8.078   1.011   0.240
29013SOL     OW89045   9.050   0.099   1.487
29013SOL    HW189046   9.069   0.146   1.405
29013SOL    HW289047   9.017   0.171   1.544
29014SOL     OW89048   7.578   0.668   0.571
29014SOL    HW189049   7.553   0.579   0.598
29014SOL    HW289050   7.561   0.722   0.651
29015SOL     OW89051   9.297   1.740   0.355
29015SOL    HW189052   9.356   1.716   0.429
29015SOL    HW289053   9.331   1.828   0.333
29016SOL     OW89054   7.524   1.600   0.129
29016SOL    HW189055   7.506   1.510   0.159
29016SOL    HW289056   7.489   1.653   0.203
29017SOL     OW89057   9.152   0.911   0.625
29017SOL    HW189058   9.235   0.876   0.591
29017SOL    HW289059   9.125   0.972   0.555
29018SOL     OW89060   9.083   1.120   0.446
29018SOL    HW189061   9.153   1.152   0.387
29018SOL    HW289062   9.090   1.184   0.520
29019SOL     OW89063   7.573   0.741   1.574
29019SOL    HW189064   7.666   0.767   1.564
29019SOL    HW289065   7.537   0.821   1.616
29020SOL     OW89066   8.037   1.402   0.741
29020SOL    HW189067   8.006   1.309   0.751
29020SOL    HW289068   8.026   1.415   0.645
29021SOL     OW89069   8.726   1.229   1.422
29021SOL    HW189070   8.760   1.164   1.358
29021SOL    HW289071   8.786   1.216   1.498
29022SOL     OW89072   8.286   0.003   0.540
29022SOL    HW189073   8.312   0.093   0.510
29022SOL    HW289074   8.189   0.007   0.527
29023SOL     OW89075   7.621   0.955   1.262
29023SOL    HW189076   7.709   0.919   1.245
29023SOL    HW289077   7.562   0.895   1.215
29024SOL     OW89078   8.981   0.995   0.197
29024SOL    HW189079   8.909   0.935   0.224
29024SOL    HW289080   9.017   1.022   0.283
29025SOL     OW89081   8.603   1.809   1.607
29025SOL    HW189082   8.626   1.877   1.543
29025SOL    HW289083   8.632   1.728   1.560
29026SOL     OW89084   7.773   0.249   1.815
29026SOL    HW189085   7.814   0.333   1.838
29026SOL    HW289086   7.679   0.266   1.834
29027SOL     OW89087   8.911   1.431   0.963
29027SOL    HW189088   8.851   1.448   1.039
29027SOL    HW289089   8.884   1.341   0.937
29028SOL     OW89090   9.105   1.745   0.595
29028SOL    HW189091   9.111   1.705   0.507
29028SOL    HW289092   9.068   1.671   0.646
29029SOL     OW89093   8.040   0.716   0.274
29029SOL    HW189094   8.042   0.803   0.231
29029SOL    HW289095   7.975   0.728   0.346
29030SOL     OW89096   8.713   0.385   0.942
29030SOL    HW189097   8.630   0.334   0.953
29030SOL    HW289098   8.778   0.328   0.987
29031SOL     OW89099   9.016   1.647   0.320
29031SOL    HW189100   9.109   1.670   0.310
29031SOL    HW289101   8.992   1.627   0.228
29032SOL     OW89102   8.265   0.611   1.451
29032SOL    HW189103   8.237   0.593   1.543
29032SOL    HW289104   8.212   0.544   1.401
29033SOL     OW89105   8.846   0.502   1.676
29033SOL    HW189106   8.852   0.552   1.759
29033SOL    HW289107   8.907   0.428   1.690
29034SOL     OW89108   8.419   0.910   1.591
29034SOL    HW189109   8.480   0.844   1.553
29034SOL    HW289110   8.369   0.936   1.510
29035SOL     OW89111   8.456   0.379   1.243
29035SOL    HW189112   8.381   0.422   1.286
29035SOL    HW289113   8.418   0.345   1.161
29036SOL     OW89114   8.483   0.674   0.422
29036SOL    HW189115   8.512   0.682   0.515
29036SOL    HW289116   8.396   0.629   0.432
29037SOL     OW89117   7.557   0.837   0.783
29037SOL    HW189118   7.628   0.828   0.849
29037SOL    HW289119   7.514   0.920   0.812
29038SOL     OW89120   7.550   1.846   1.560
29038SOL    HW189121   7.558   1.822   1.655
29038SOL    HW289122   7.455   1.841   1.545
29039SOL     OW89123   8.337   0.367   0.210
29039SOL    HW189124   8.374   0.420   0.137
29039SOL    HW289125   8.324   0.280   0.168
29040SOL     OW89126   9.158   0.566   1.839
29040SOL    HW189127   9.122   0.648   1.798
29040SOL    HW289128   9.186   0.519   1.760
29041SOL     OW89129   8.810   1.152   0.579
29041SOL    HW189130   8.889   1.134   0.526
29041SOL    HW289131   8.764   1.216   0.523
29042SOL     OW89132   7.982   0.211   0.892
29042SOL    HW189133   8.011   0.221   0.985
29042SOL    HW289134   7.993   0.299   0.854
29043SOL     OW89135   8.443   1.430   0.484
29043SOL    HW189136   8.414   1.508   0.433
29043SOL    HW289137   8.444   1.464   0.575
29044SOL     OW89138   7.793   1.815   0.862
29044SOL    HW189139   7.842   1.731   0.868
29044SOL    HW289140   7.860   1.880   0.885
29045SOL     OW89141   9.256   1.050   0.881
29045SOL    HW189142   9.203   1.021   0.805
29045SOL    HW289143   9.193   1.043   0.955
29046SOL     OW89144   8.657   1.571   1.486
29046SOL    HW189145   8.657   1.504   1.555
29046SOL    HW289146   8.632   1.519   1.409
29047SOL     OW89147   7.769   0.963   0.270
29047SOL    HW189148   7.854   0.967   0.226
29047SOL    HW289149   7.739   0.872   0.252
29048SOL     OW89150   8.929   0.745   0.711
29048SOL    HW189151   8.917   0.706   0.799
29048SOL    HW289152   9.008   0.801   0.722
29049SOL     OW89153   7.911   1.276   1.725
29049SOL    HW189154   7.870   1.281   1.635
29049SOL    HW289155   7.831   1.279   1.780
29050SOL     OW89156   8.534   1.767   0.213
29050SOL    HW189157   8.485   1.710   0.275
29050SOL    HW289158   8.568   1.703   0.148
29051SOL     OW89159   7.632   0.300   1.499
29051SOL    HW189160   7.554   0.355   1.514
29051SOL    HW289161   7.600   0.214   1.534
29052SOL     OW89162   9.066   1.342   0.093
29052SOL    HW189163   9.020   1.426   0.073
29052SOL    HW289164   9.013   1.276   0.044
29053SOL     OW89165   7.905   1.744   0.307
29053SOL    HW189166   7.948   1.786   0.383
29053SOL    HW289167   7.980   1.724   0.250
29054SOL     OW89168   8.842   0.099   0.449
29054SOL    HW189169   8.850   0.073   0.356
29054SOL    HW289170   8.934   0.116   0.474
29055SOL     OW89171   7.689   1.796   1.226
29055SOL    HW189172   7.743   1.728   1.270
29055SOL    HW289173   7.676   1.758   1.138
29056SOL     OW89174   8.407   1.700   0.873
29056SOL    HW189175   8.490   1.654   0.893
29056SOL    HW289176   8.364   1.639   0.811
29057SOL     OW89177   7.841   0.688   0.474
29057SOL    HW189178   7.848   0.590   0.482
29057SOL    HW289179   7.750   0.701   0.506
29058SOL     OW89180   8.984   0.248   1.718
29058SOL    HW189181   8.985   0.257   1.816
29058SOL    HW289182   8.924   0.173   1.711
29059SOL     OW89183   8.050   0.099   0.094
29059SOL    HW189184   8.143   0.077   0.109
29059SOL    HW289185   8.032   0.067   0.005
29060SOL     OW89186   8.215   0.288   1.753
29060SOL    HW189187   8.296   0.233   1.747
29060SOL    HW289188   8.169   0.248   1.828
29061SOL     OW89189   8.335   1.544   1.188
29061SOL    HW189190   8.326   1.509   1.098
29061SOL    HW289191   8.381   1.472   1.234
29062SOL     OW89192   8.767   0.591   1.437
29062SOL    HW189193   8.805   0.556   1.521
29062SOL    HW289194   8.821   0.671   1.423
29063SOL     OW89195   8.272   1.402   0.941
29063SOL    HW189196   8.360   1.390   0.899
29063SOL    HW289197   8.214   1.410   0.864
29064SOL     OW89198   8.391   0.533   0.914
29064SOL    HW189199   8.363   0.510   0.823
29064SOL    HW289200   8.420   0.446   0.946
29065SOL     OW89201   8.017   0.045   0.508
29065SOL    HW189202   7.930   0.037   0.550
29065SOL    HW289203   8.005   0.125   0.455
29066SOL     OW89204   8.888   1.161   0.003
29066SOL    HW189205   8.928   1.100   0.069
29066SOL    HW289206   8.813   1.197   0.052
29067SOL     OW89207   7.733   0.032   0.217
29067SOL    HW189208   7.747   0.092   0.141
29067SOL    HW289209   7.823   0.001   0.234
29068SOL     OW89210   8.380   0.254   0.473
29068SOL    HW189211   8.357   0.300   0.390
29068SOL    HW289212   8.477   0.261   0.472
29069SOL     OW89213   8.540   0.717   1.465
29069SOL    HW189214   8.475   0.646   1.474
29069SOL    HW289215   8.624   0.668   1.457
29070SOL     OW89216   8.680   1.579   0.799
29070SOL    HW189217   8.687   1.644   0.726
29070SOL    HW289218   8.749   1.607   0.859
29071SOL     OW89219   7.929   1.150   0.745
29071SOL    HW189220   7.855   1.126   0.805
29071SOL    HW289221   7.886   1.138   0.658
29072SOL     OW89222   8.704   1.802   0.627
29072SOL    HW189223   8.751   1.871   0.578
29072SOL    HW289224   8.654   1.854   0.692
29073SOL     OW89225   8.448   0.534   0.011
29073SOL    HW189226   8.422   0.627  11.099
29073SOL    HW289227   8.537   0.543   0.048
29074SOL     OW89228   7.505   0.572   1.383
29074SOL    HW189229   7.599   0.561   1.364
29074SOL    HW289230   7.507   0.639   1.455
29075SOL     OW89231   8.008   0.222   1.177
29075SOL    HW189232   8.050   0.160   1.238
29075SOL    HW289233   7.914   0.220   1.206
29076SOL     OW89234   8.328   0.440   0.667
29076SOL    HW189235   8.276   0.496   0.608
29076SOL    HW289236   8.344   0.362   0.611
29077SOL     OW89237   8.434   0.012   0.772
29077SOL    HW189238   8.381   0.035   0.694
29077SOL    HW289239   8.398  11.027   0.798
29078SOL     OW89240   8.869   1.182   0.880
29078SOL    HW189241   8.791   1.127   0.895
29078SOL    HW289242   8.878   1.175   0.783
29079SOL     OW89243   8.914   0.616   0.975
29079SOL    HW189244   8.865   0.532   0.978
29079SOL    HW289245   8.981   0.604   1.045
29080SOL     OW89246   9.321   0.813   0.366
29080SOL    HW189247   9.362   0.757   0.435
29080SOL    HW289248   9.282   0.745   0.308
29081SOL     OW89249   7.945   1.434   0.132
29081SOL    HW189250   7.869   1.413   0.191
29081SOL    HW289251   7.941   1.361   0.067
29082SOL     OW89252   9.118   1.297   0.646
29082SOL    HW189253   9.213   1.298   0.665
29082SOL    HW289254   9.087   1.383   0.677
29083SOL     OW89255   8.828   0.598   0.077
29083SOL    HW189256   8.795   0.567   0.164
29083SOL    HW289257   8.893   0.530   0.055
29084SOL     OW89258   7.967   0.249   0.313
29084SOL    HW189259   7.985   0.191   0.236
29084SOL    HW289260   7.951   0.335   0.269
29085SOL     OW89261   9.191   1.229   1.572
29085SOL    HW189262   9.282   1.200   1.583
29085SOL    HW289263   9.202   1.325   1.589
29086SOL     OW89264   8.505   1.355   1.326
29086SOL    HW189265   8.428   1.334   1.382
29086SOL    HW289266   8.577   1.309   1.374
29087SOL     OW89267   8.560   1.218   1.094
29087SOL    HW189268   8.518   1.267   1.166
29087SOL    HW289269   8.529   1.264   1.015
29088SOL     OW89270   9.048   1.094   1.074
29088SOL    HW189271   9.056   1.160   1.146
29088SOL    HW289272   8.992   1.142   1.010
29089SOL     OW89273   8.349   0.076   1.413
29089SOL    HW189274   8.375   0.065   1.319
29089SOL    HW289275   8.430   0.113   1.450
29090SOL     OW89276   8.447   1.124   1.748
29090SOL    HW189277   8.356   1.153   1.765
29090SOL    HW289278   8.435   1.052   1.684
29091SOL     OW89279   8.181   1.061   0.387
29091SOL    HW189280   8.168   1.041   0.483
29091SOL    HW289281   8.256   1.001   0.365
29092SOL     OW89282   7.865   0.804   1.257
29092SOL    HW189283   7.939   0.801   1.323
29092SOL    HW289284   7.825   0.716   1.269
29093SOL     OW89285   8.744   0.386   1.258
29093SOL    HW189286   8.751   0.459   1.322
29093SOL    HW289287   8.650   0.390   1.233
29094SOL     OW89288   7.512   1.571   1.347
29094SOL    HW189289   7.510   1.661   1.312
29094SOL    HW289290   7.608   1.551   1.346
29095SOL     OW89291   7.810   1.122   0.503
29095SOL    HW189292   7.794   1.195   0.442
29095SOL    HW289293   7.801   1.045   0.445
29096SOL     OW89294   8.009   0.545   0.861
29096SOL    HW189295   8.031   0.610   0.791
29096SOL    HW289296   8.078   0.561   0.928
29097SOL     OW89297   8.681   1.329   0.400
29097SOL    HW189298   8.728   1.409   0.429
29097SOL    HW289299   8.590   1.350   0.427
29098SOL     OW89300   8.747   1.472   1.174
29098SOL    HW189301   8.811   1.482   1.248
29098SOL    HW289302   8.690   1.401   1.206
29099SOL     OW89303   9.045   0.632   0.477
29099SOL    HW189304   8.997   0.678   0.549
29099SOL    HW289305   9.048   0.698   0.408
29100SOL     OW89306   7.782   1.508   1.310
29100SOL    HW189307   7.776   1.469   1.220
29100SOL    HW289308   7.875   1.537   1.311
29101SOL     OW89309   7.880   0.724   1.618
29101SOL    HW189310   7.942   0.776   1.565
29101SOL    HW289311   7.919   0.635   1.610
29102SOL     OW89312   9.074   0.774   1.690
29102SOL    HW189313   8.985   0.813   1.689
29102SOL    HW289314   9.114   0.819   1.612
29103SOL     OW89315   8.444   0.139   1.766
29103SOL    HW189316   8.507   0.212   1.764
29103SOL    HW289317   8.495   0.069   1.721
29104SOL     OW89318   7.945   0.042   1.751
29104SOL    HW189319   7.892  11.100   1.683
29104SOL    HW289320   7.883   0.112   1.781
29105SOL     OW89321   8.051   0.886   1.047
29105SOL    HW189322   8.072   0.981   1.040
29105SOL    HW289323   7.989   0.884   1.122
29106SOL     OW89324   8.798   0.870   1.019
29106SOL    HW189325   8.714   0.831   0.989
29106SOL    HW289326   8.853   0.790   1.025
29107SOL     OW89327   8.676   0.502   0.279
29107SOL    HW189328   8.687   0.432   0.346
29107SOL    HW289329   8.612   0.560   0.323
29108SOL     OW89330   7.748   0.215   1.260
29108SOL    HW189331   7.713   0.253   1.343
29108SOL    HW289332   7.698   0.133   1.254
29109SOL     OW89333   7.479   1.305   1.287
29109SOL    HW189334   7.503   1.246   1.361
29109SOL    HW289335   7.488   1.394   1.325
29110SOL     OW89336   8.170   0.617   1.062
29110SOL    HW189337   8.257   0.602   1.020
29110SOL    HW289338   8.151   0.711   1.047
29111SOL     OW89339   9.219   0.958   1.847
29111SOL    HW189340   9.162   0.898   1.796
29111SOL    HW289341   9.159   0.983   1.919
29112SOL     OW89342   7.747   0.019   0.629
29112SOL    HW189343   7.726   0.114   0.632
29112SOL    HW289344   7.754  11.101   0.724
29113SOL     OW89345   9.033   0.381   0.341
29113SOL    HW189346   9.079   0.312   0.390
29113SOL    HW289347   9.034   0.456   0.404
29114SOL     OW89348   8.534   0.749   0.979
29114SOL    HW189349   8.503   0.764   1.071
29114SOL    HW289350   8.490   0.664   0.959
29115SOL     OW89351   8.417   1.567   1.698
29115SOL    HW189352   8.408   1.619   1.615
29115SOL    HW289353   8.460   1.485   1.667
29116SOL     OW89354   9.312   1.474   1.609
29116SOL    HW189355   9.248   1.546   1.602
29116SOL    HW289356   9.390   1.517   1.649
29117SOL     OW89357   7.809   0.908   1.794
29117SOL    HW189358   7.891   0.917   1.844
29117SOL    HW289359   7.825   0.829   1.739
29118SOL     OW89360   8.954   0.278   0.092
29118SOL    HW189361   8.890   0.217   0.131
29118SOL    HW289362   9.000   0.310   0.172
29119SOL     OW89363   8.726   0.838   0.022
29119SOL    HW189364   8.763   0.748   0.040
29119SOL    HW289365   8.773   0.862  11.043
29120SOL     OW89366   8.516   1.361   0.849
29120SOL    HW189367   8.532   1.283   0.792
29120SOL    HW289368   8.583   1.426   0.821
29121SOL     OW89369   7.742   0.829   0.987
29121SOL    HW189370   7.835   0.846   0.968
29121SOL    HW289371   7.744   0.737   1.019
29122SOL     OW89372   7.787   0.534   1.008
29122SOL    HW189373   7.747   0.451   0.978
29122SOL    HW289374   7.866   0.540   0.949
29123SOL     OW89375   8.608   0.380   1.700
29123SOL    HW189376   8.558   0.435   1.763
29123SOL    HW289377   8.694   0.426   1.699
29124SOL     OW89378   8.630   0.220   1.477
29124SOL    HW189379   8.623   0.285   1.550
29124SOL    HW289380   8.649   0.276   1.400
29125SOL     OW89381   7.444   1.344   0.219
29125SOL    HW189382   7.357   1.352   0.174
29125SOL    HW289383   7.451   1.247   0.230
29126SOL     OW89384   7.542   1.781   0.940
29126SOL    HW189385   7.513   1.719   0.871
29126SOL    HW289386   7.635   1.798   0.913
29127SOL     OW89387   7.928   1.575   0.908
29127SOL    HW189388   8.000   1.639   0.914
29127SOL    HW289389   7.965   1.508   0.847
29128SOL     OW89390   8.414   0.757   1.223
29128SOL    HW189391   8.475   0.750   1.299
29128SOL    HW289392   8.329   0.737   1.264
29129SOL     OW89393   7.473   0.531   1.105
29129SOL    HW189394   7.551   0.505   1.054
29129SOL    HW289395   7.509   0.543   1.194
29130SOL     OW89396   7.649   0.512   1.710
29130SOL    HW189397   7.704   0.467   1.644
29130SOL    HW289398   7.619   0.591   1.661
29131SOL     OW89399   8.841   0.913   1.653
29131SOL    HW189400   8.864   1.008   1.654
29131SOL    HW289401   8.831   0.896   1.558
29132SOL     OW89402   8.242   0.566   0.392
29132SOL    HW189403   8.269   0.500   0.326
29132SOL    HW289404   8.175   0.618   0.345
29133SOL     OW89405   9.090   0.612   1.180
29133SOL    HW189406   9.072   0.547   1.249
29133SOL    HW289407   9.180   0.588   1.151
29134SOL     OW89408   7.699   1.535   1.718
29134SOL    HW189409   7.686   1.604   1.784
29134SOL    HW289410   7.708   1.455   1.772
29135SOL     OW89411   8.136   0.460   1.273
29135SOL    HW189412   8.083   0.385   1.243
29135SOL    HW289413   8.134   0.520   1.196
29136SOL     OW89414   8.360   1.701   1.470
29136SOL    HW189415   8.363   1.672   1.378
29136SOL    HW289416   8.365   1.798   1.464
29137SOL     OW89417   7.912   0.491   0.199
29137SOL    HW189418   7.971   0.566   0.217
29137SOL    HW289419   7.826   0.536   0.197
29138SOL     OW89420   7.560   1.127   1.467
29138SOL    HW189421   7.572   1.070   1.546
29138SOL    HW289422   7.580   1.064   1.394
29139SOL     OW89423   8.762   1.050   1.223
29139SOL    HW189424   8.785   0.992   1.147
29139SOL    HW289425   8.690   1.103   1.185
29140SOL     OW89426   8.761   0.857   0.299
29140SOL    HW189427   8.681   0.824   0.342
29140SOL    HW289428   8.737   0.852   0.205
29141SOL     OW89429   9.215   1.757   1.118
29141SOL    HW189430   9.292   1.760   1.058
29141SOL    HW289431   9.201   1.660   1.125
29142SOL     OW89432   8.688   1.726   1.101
29142SOL    HW189433   8.780   1.752   1.084
29142SOL    HW289434   8.698   1.632   1.129
29143SOL     OW89435   7.552   1.241   1.041
29143SOL    HW189436   7.519   1.267   1.129
29143SOL    HW289437   7.472   1.207   0.998
29144SOL     OW89438   8.143   1.637   1.744
29144SOL    HW189439   8.108   1.722   1.714
29144SOL    HW289440   8.236   1.640   1.717
29145SOL     OW89441   8.334   0.113   0.087
29145SOL    HW189442   8.407   0.091   0.027
29145SOL    HW289443   8.366   0.065   0.166
29146SOL     OW89444   9.127   0.123   0.510
29146SOL    HW189445   9.190   0.129   0.434
29146SOL    HW289446   9.174   0.064   0.569
29147SOL     OW89447   8.803   1.566   0.483
29147SOL    HW189448   8.875   1.584   0.421
29147SOL    HW289449   8.769   1.655   0.500
29148SOL     OW89450   7.601   1.788   1.822
29148SOL    HW189451   7.551   1.721   1.874
29148SOL    HW289452   7.644   1.838   1.894
29149SOL     OW89453   8.709   0.913   0.656
29149SOL    HW189454   8.790   0.860   0.670
29149SOL    HW289455   8.745   0.997   0.622
29150SOL     OW89456   8.242   1.259   1.415
29150SOL    HW189457   8.216   1.312   1.494
29150SOL    HW289458   8.163   1.267   1.359
29151SOL     OW89459   8.129   1.620   0.166
29151SOL    HW189460   8.145   1.624   0.072
29151SOL    HW289461   8.064   1.546   0.170
29152SOL     OW89462   9.048   1.711   1.342
29152SOL    HW189463   9.117   1.759   1.294
29152SOL    HW289464   9.036   1.765   1.423
29153SOL     OW89465   9.303   0.122   0.960
29153SOL    HW189466   9.332   0.057   0.894
29153SOL    HW289467   9.227   0.165   0.914
29154SOL     OW89468   7.696   0.287   0.709
29154SOL    HW189469   7.614   0.336   0.686
29154SOL    HW289470   7.699   0.297   0.805
29155SOL     OW89471   8.663   1.602   0.041
29155SOL    HW189472   8.666   1.508   0.069
29155SOL    HW289473   8.594   1.600  11.073
29156SOL     OW89474   8.273   0.998   1.381
29156SOL    HW189475   8.295   0.995   1.287
29156SOL    HW289476   8.270   1.095   1.398
29157SOL     OW89477   8.375   0.912   0.297
29157SOL    HW189478   8.433   0.944   0.224
29157SOL    HW289479   8.407   0.823   0.315
29158SOL     OW89480   8.957   1.591   0.045
29158SOL    HW189481   8.863   1.611   0.042
29158SOL    HW289482   8.992   1.620  11.061
29159SOL     OW89483   7.792   1.279   1.491
29159SOL    HW189484   7.782   1.346   1.422
29159SOL    HW289485   7.713   1.224   1.480
29160SOL     OW89486   9.056   1.305   1.261
29160SOL    HW189487   9.117   1.292   1.336
29160SOL    HW289488   8.994   1.371   1.299
29161SOL     OW89489   8.510   1.115   0.734
29161SOL    HW189490   8.432   1.068   0.767
29161SOL    HW289491   8.560   1.044   0.691
29162SOL     OW89492   8.481   0.253   0.972
29162SOL    HW189493   8.468   0.205   0.889
29162SOL    HW289494   8.465   0.182   1.036
29163SOL     OW89495   8.064   1.479   0.482
29163SOL    HW189496   8.112   1.429   0.414
29163SOL    HW289497   7.988   1.514   0.434
29164SOL     OW89498   9.150   0.382   1.380
29164SOL    HW189499   9.211   0.458   1.377
29164SOL    HW289500   9.195   0.318   1.321
29165SOL     OW89501   7.707   1.357   0.262
29165SOL    HW189502   7.613   1.347   0.235
29165SOL    HW289503   7.697   1.384   0.356
29166SOL     OW89504   7.575   0.987   1.692
29166SOL    HW189505   7.503   0.983   1.759
29166SOL    HW289506   7.656   0.968   1.745
29167SOL     OW89507   8.112   0.218   1.488
29167SOL    HW189508   8.189   0.167   1.459
29167SOL    HW289509   8.144   0.254   1.573
29168SOL     OW89510   7.539   0.403   0.023
29168SOL    HW189511   7.473   0.344  11.085
29168SOL    HW289512   7.518   0.485  11.080
29169SOL     OW89513   8.885   0.854   1.389
29169SOL    HW189514   8.848   0.922   1.330
29169SOL    HW289515   8.980   0.874   1.387
29170SOL     OW89516   7.498   0.152   0.335
29170SOL    HW189517   7.496   0.219   0.267
29170SOL    HW289518   7.586   0.111   0.320
29171SOL     OW89519   8.638   1.346   0.131
29171SOL    HW189520   8.545   1.323   0.121
29171SOL    HW289521   8.653   1.329   0.226
29172SOL     OW89522   8.072   0.802   1.428
29172SOL    HW189523   8.125   0.883   1.433
29172SOL    HW289524   8.143   0.735   1.434
29173SOL     OW89525   8.957   1.792   0.963
29173SOL    HW189526   8.999   1.796   0.877
29173SOL    HW289527   9.030   1.762   1.020
29174SOL     OW89528   8.167   0.573   1.699
29174SOL    HW189529   8.216   0.636   1.754
29174SOL    HW289530   8.182   0.488   1.743
29175SOL     OW89531   8.914   1.183   1.618
29175SOL    HW189532   8.904   1.190   1.716
29175SOL    HW289533   9.007   1.207   1.605
29176SOL     OW89534   7.821   1.734   1.559
29176SOL    HW189535   7.740   1.785   1.547
29176SOL    HW289536   7.787   1.650   1.593
29177SOL     OW89537   9.151   0.896   1.229
29177SOL    HW189538   9.117   0.811   1.198
29177SOL    HW289539   9.109   0.960   1.168
29178SOL     OW89540   8.662   0.313   0.482
29178SOL    HW189541   8.725   0.239   0.472
29178SOL    HW289542   8.697   0.359   0.561
29179SOL     OW89543   8.035   0.751   0.667
29179SOL    HW189544   8.068   0.840   0.645
29179SOL    HW289545   7.968   0.735   0.598
29180SOL     OW89546   9.216   0.374   1.641
29180SOL    HW189547   9.181   0.378   1.550
29180SOL    HW289548   9.144   0.326   1.685
29181SOL     OW89549   9.166   0.937   1.494
29181SOL    HW189550   9.176   1.033   1.508
29181SOL    HW289551   9.192   0.928   1.400
29182SOL     OW89552   8.353   1.352   0.043
29182SOL    HW189553   8.270   1.352   0.093
29182SOL    HW289554   8.352   1.439  -0.000
29183SOL     OW89555   8.092   1.800   0.898
29183SOL    HW189556   8.077   1.896   0.890
29183SOL    HW289557   8.186   1.794   0.919
29184SOL     OW89558   8.323   0.954   0.845
29184SOL    HW189559   8.371   0.879   0.881
29184SOL    HW289560   8.302   1.006   0.925
29185SOL     OW89561   8.501   0.991   0.076
29185SOL    HW189562   8.506   1.060   0.009
29185SOL    HW289563   8.582   0.940   0.059
29186SOL     OW89564   9.295   1.545   0.819
29186SOL    HW189565   9.200   1.549   0.807
29186SOL    HW289566   9.303   1.497   0.903
29187SOL     OW89567   7.685   1.311   1.869
29187SOL    HW189568   7.605   1.260   1.852
29187SOL    HW289569   7.681   1.322   1.966
29188SOL     OW89570   7.546   1.238   0.654
29188SOL    HW189571   7.559   1.194   0.739
29188SOL    HW289572   7.613   1.193   0.600
29189SOL     OW89573   8.123   1.398   1.611
29189SOL    HW189574   8.046   1.349   1.646
29189SOL    HW289575   8.112   1.485   1.653
29190SOL     OW89576   9.266   0.196   1.228
29190SOL    HW189577   9.246   0.101   1.231
29190SOL    HW289578   9.284   0.208   1.134
29191SOL     OW89579   7.846   0.422   0.519
29191SOL    HW189580   7.888   0.355   0.463
29191SOL    HW289581   7.812   0.371   0.594
29192SOL     OW89582   9.169   1.493   1.076
29192SOL    HW189583   9.081   1.465   1.046
29192SOL    HW289584   9.177   1.444   1.159
29193SOL     OW89585   7.764   0.554   1.279
29193SOL    HW189586   7.830   0.504   1.332
29193SOL    HW289587   7.787   0.531   1.187
29194SOL     OW89588   8.266   1.569   0.679
29194SOL    HW189589   8.257   1.594   0.586
29194SOL    HW289590   8.179   1.531   0.698
29195SOL     OW89591   8.891   0.254   1.086
29195SOL    HW189592   8.911   0.173   1.134
29195SOL    HW289593   8.843   0.307   1.155
29196SOL     OW89594   8.440   0.007   1.160
29196SOL    HW189595   8.401  11.020   1.155
29196SOL    HW289596   8.535  11.089   1.147
29197SOL     OW89597   8.217   1.330   0.323
29197SOL    HW189598   8.204   1.235   0.338
29197SOL    HW289599   8.299   1.346   0.373
29198SOL     OW89600   8.047   1.563   1.259
29198SOL    HW189601   8.048   1.650   1.304
29198SOL    HW289602   8.142   1.554   1.237
29199SOL     OW89603   8.767   0.057   0.147
29199SOL    HW189604   8.773   0.018   0.059
29199SOL    HW289605   8.676   0.034   0.173
29200SOL     OW89606   8.741   0.473   0.692
29200SOL    HW189607   8.677   0.546   0.684
29200SOL    HW289608   8.728   0.443   0.784
29201SOL     OW89609   9.073   0.220   0.861
29201SOL    HW189610   9.003   0.234   0.927
29201SOL    HW289611   9.061   0.299   0.805
29202SOL     OW89612   7.495   1.084   0.279
29202SOL    HW189613   7.591   1.072   0.285
29202SOL    HW289614   7.464   0.995   0.302
29203SOL     OW89615   8.339   1.639   0.356
29203SOL    HW189616   8.257   1.624   0.305
29203SOL    HW289617   8.318   1.724   0.404
29204SOL     OW89618   7.687   0.627   1.991
29204SOL    HW189619   7.596   0.616   2.020
29204SOL    HW289620   7.682   0.617   1.895
29205SOL     OW89621   7.669   0.293   2.852
29205SOL    HW189622   7.688   0.281   2.946
29205SOL    HW289623   7.598   0.228   2.836
29206SOL     OW89624   7.460   0.404   2.505
29206SOL    HW189625   7.379   0.431   2.552
29206SOL    HW289626   7.427   0.332   2.450
29207SOL     OW89627   8.016   1.288   3.062
29207SOL    HW189628   7.930   1.286   3.018
29207SOL    HW289629   8.023   1.381   3.089
29208SOL     OW89630   8.960   1.541   2.571
29208SOL    HW189631   8.934   1.492   2.651
29208SOL    HW289632   8.889   1.527   2.505
29209SOL     OW89633   8.570   0.693   2.560
29209SOL    HW189634   8.610   0.781   2.545
29209SOL    HW289635   8.548   0.698   2.654
29210SOL     OW89636   9.238   0.601   2.091
29210SOL    HW189637   9.208   0.590   1.998
29210SOL    HW289638   9.191   0.529   2.134
29211SOL     OW89639   8.197   1.162   2.901
29211SOL    HW189640   8.132   1.207   2.958
29211SOL    HW289641   8.229   1.236   2.848
29212SOL     OW89642   8.330   0.774   3.665
29212SOL    HW189643   8.302   0.842   3.727
29212SOL    HW289644   8.361   0.826   3.588
29213SOL     OW89645   8.130   1.023   2.503
29213SOL    HW189646   8.195   1.004   2.573
29213SOL    HW289647   8.060   1.070   2.551
29214SOL     OW89648   8.151   1.156   3.665
29214SOL    HW189649   8.197   1.241   3.679
29214SOL    HW289650   8.064   1.186   3.630
29215SOL     OW89651   7.769   1.426   2.929
29215SOL    HW189652   7.701   1.383   2.876
29215SOL    HW289653   7.819   1.479   2.864
29216SOL     OW89654   8.923   1.502   3.235
29216SOL    HW189655   8.977   1.583   3.245
29216SOL    HW289656   8.853   1.515   3.301
29217SOL     OW89657   7.884   0.408   3.370
29217SOL    HW189658   7.958   0.345   3.356
29217SOL    HW289659   7.806   0.353   3.357
29218SOL     OW89660   9.060   0.464   2.603
29218SOL    HW189661   9.006   0.495   2.528
29218SOL    HW289662   9.050   0.539   2.664
29219SOL     OW89663   7.671   1.716   2.338
29219SOL    HW189664   7.699   1.795   2.389
29219SOL    HW289665   7.730   1.720   2.261
29220SOL     OW89666   8.571   1.346   3.517
29220SOL    HW189667   8.613   1.344   3.603
29220SOL    HW289668   8.530   1.258   3.516
29221SOL     OW89669   7.697   1.445   2.395
29221SOL    HW189670   7.692   1.542   2.398
29221SOL    HW289671   7.628   1.418   2.458
29222SOL     OW89672   7.716   1.097   2.766
29222SOL    HW189673   7.713   1.019   2.823
29222SOL    HW289674   7.658   1.159   2.814
29223SOL     OW89675   8.042   1.797   3.265
29223SOL    HW189676   7.972   1.768   3.326
29223SOL    HW289677   8.065   1.886   3.301
29224SOL     OW89678   8.024   0.985   1.978
29224SOL    HW189679   8.073   1.038   1.911
29224SOL    HW289680   8.064   1.019   2.060
29225SOL     OW89681   9.052   0.096   3.343
29225SOL    HW189682   9.073   0.146   3.263
29225SOL    HW289683   9.013   0.165   3.399
29226SOL     OW89684   7.565   0.660   2.428
29226SOL    HW189685   7.542   0.569   2.453
29226SOL    HW289686   7.561   0.709   2.512
29227SOL     OW89687   9.310   1.735   2.205
29227SOL    HW189688   9.374   1.719   2.277
29227SOL    HW289689   9.327   1.828   2.185
29228SOL     OW89690   7.500   1.592   1.976
29228SOL    HW189691   7.489   1.497   1.993
29228SOL    HW289692   7.465   1.632   2.057
29229SOL     OW89693   9.139   0.901   2.489
29229SOL    HW189694   9.206   0.866   2.429
29229SOL    HW289695   9.100   0.971   2.431
29230SOL     OW89696   7.558   0.734   3.444
29230SOL    HW189697   7.643   0.780   3.445
29230SOL    HW289698   7.496   0.808   3.445
29231SOL     OW89699   8.041   1.413   2.615
29231SOL    HW189700   8.005   1.322   2.627
29231SOL    HW289701   8.023   1.428   2.520
29232SOL     OW89702   8.735   1.230   3.284
29232SOL    HW189703   8.760   1.158   3.222
29232SOL    HW289704   8.790   1.212   3.362
29233SOL     OW89705   8.272  11.100   2.386
29233SOL    HW189706   8.306   0.087   2.363
29233SOL    HW289707   8.177   0.008   2.367
29234SOL     OW89708   7.633   0.978   3.135
29234SOL    HW189709   7.721   0.946   3.111
29234SOL    HW289710   7.575   0.921   3.082
29235SOL     OW89711   8.981   0.967   2.027
29235SOL    HW189712   8.909   0.914   2.065
29235SOL    HW289713   9.012   1.015   2.108
29236SOL     OW89714   8.636   1.792   3.486
29236SOL    HW189715   8.639   1.859   3.417
29236SOL    HW289716   8.652   1.712   3.433
29237SOL     OW89717   7.775   0.220   3.653
29237SOL    HW189718   7.817   0.307   3.659
29237SOL    HW289719   7.682   0.242   3.669
29238SOL     OW89720   8.915   1.430   2.824
29238SOL    HW189721   8.850   1.447   2.895
29238SOL    HW289722   8.893   1.339   2.797
29239SOL     OW89723   9.106   1.737   2.464
29239SOL    HW189724   9.087   1.701   2.375
29239SOL    HW289725   9.069   1.666   2.520
29240SOL     OW89726   8.041   0.712   2.124
29240SOL    HW189727   8.044   0.797   2.077
29240SOL    HW289728   7.973   0.727   2.192
29241SOL     OW89729   8.712   0.373   2.784
29241SOL    HW189730   8.629   0.326   2.805
29241SOL    HW289731   8.776   0.325   2.839
29242SOL     OW89732   9.018   1.658   2.185
29242SOL    HW189733   9.114   1.662   2.168
29242SOL    HW289734   8.983   1.638   2.096
29243SOL     OW89735   8.263   0.604   3.320
29243SOL    HW189736   8.227   0.581   3.408
29243SOL    HW289737   8.215   0.543   3.261
29244SOL     OW89738   8.835   0.480   3.537
29244SOL    HW189739   8.838   0.534   3.618
29244SOL    HW289740   8.902   0.412   3.555
29245SOL     OW89741   8.421   0.907   3.453
29245SOL    HW189742   8.478   0.836   3.416
29245SOL    HW289743   8.368   0.929   3.374
29246SOL     OW89744   8.448   0.384   3.096
29246SOL    HW189745   8.361   0.411   3.127
29246SOL    HW289746   8.428   0.338   3.013
29247SOL     OW89747   8.491   0.685   2.286
29247SOL    HW189748   8.511   0.692   2.382
29247SOL    HW289749   8.403   0.642   2.286
29248SOL     OW89750   7.559   0.826   2.646
29248SOL    HW189751   7.628   0.826   2.714
29248SOL    HW289752   7.515   0.911   2.663
29249SOL     OW89753   7.552   1.838   3.430
29249SOL    HW189754   7.560   1.821   3.526
29249SOL    HW289755   7.458   1.822   3.415
29250SOL     OW89756   8.328   0.343   2.078
29250SOL    HW189757   8.366   0.397   2.007
29250SOL    HW289758   8.304   0.263   2.031
29251SOL     OW89759   9.166   0.562   3.694
29251SOL    HW189760   9.134   0.644   3.651
29251SOL    HW289761   9.189   0.508   3.616
29252SOL     OW89762   8.789   1.153   2.441
29252SOL    HW189763   8.872   1.133   2.392
29252SOL    HW289764   8.749   1.214   2.378
29253SOL     OW89765   7.986   0.195   2.752
29253SOL    HW189766   8.004   0.217   2.845
29253SOL    HW289767   7.984   0.280   2.707
29254SOL     OW89768   8.433   1.436   2.351
29254SOL    HW189769   8.395   1.498   2.287
29254SOL    HW289770   8.452   1.493   2.427
29255SOL     OW89771   7.793   1.804   2.719
29255SOL    HW189772   7.834   1.717   2.739
29255SOL    HW289773   7.868   1.864   2.735
29256SOL     OW89774   9.259   1.042   2.728
29256SOL    HW189775   9.209   1.022   2.647
29256SOL    HW289776   9.189   1.052   2.794
29257SOL     OW89777   8.669   1.561   3.346
29257SOL    HW189778   8.652   1.491   3.411
29257SOL    HW289779   8.625   1.524   3.268
29258SOL     OW89780   7.752   0.952   2.117
29258SOL    HW189781   7.832   0.970   2.065
29258SOL    HW289782   7.726   0.864   2.086
29259SOL     OW89783   8.925   0.751   2.580
29259SOL    HW189784   8.924   0.722   2.672
29259SOL    HW289785   9.004   0.808   2.575
29260SOL     OW89786   7.909   1.264   3.583
29260SOL    HW189787   7.869   1.270   3.493
29260SOL    HW289788   7.828   1.276   3.637
29261SOL     OW89789   8.542   1.770   2.103
29261SOL    HW189790   8.473   1.715   2.144
29261SOL    HW289791   8.559   1.724   2.019
29262SOL     OW89792   7.621   0.303   3.359
29262SOL    HW189793   7.534   0.344   3.370
29262SOL    HW289794   7.603   0.213   3.393
29263SOL     OW89795   9.075   1.365   1.948
29263SOL    HW189796   9.019   1.442   1.930
29263SOL    HW289797   9.019   1.293   1.914
29264SOL     OW89798   7.907   1.739   2.176
29264SOL    HW189799   7.955   1.785   2.248
29264SOL    HW289800   7.979   1.707   2.119
29265SOL     OW89801   8.854   0.082   2.303
29265SOL    HW189802   8.842   0.073   2.207
29265SOL    HW289803   8.941   0.125   2.311
29266SOL     OW89804   7.696   1.789   3.094
29266SOL    HW189805   7.758   1.725   3.132
29266SOL    HW289806   7.690   1.761   3.003
29267SOL     OW89807   8.407   1.698   2.751
29267SOL    HW189808   8.492   1.652   2.755
29267SOL    HW289809   8.362   1.649   2.679
29268SOL     OW89810   7.818   0.689   2.318
29268SOL    HW189811   7.840   0.594   2.330
29268SOL    HW289812   7.725   0.690   2.346
29269SOL     OW89813   8.989   0.244   3.581
29269SOL    HW189814   8.987   0.257   3.679
29269SOL    HW289815   8.929   0.168   3.575
29270SOL     OW89816   8.096   0.133   1.950
29270SOL    HW189817   8.126   0.050   1.989
29270SOL    HW289818   8.040   0.102   1.876
29271SOL     OW89819   8.186   0.234   3.613
29271SOL    HW189820   8.282   0.212   3.617
29271SOL    HW289821   8.173   0.284   3.694
29272SOL     OW89822   8.329   1.541   3.060
29272SOL    HW189823   8.323   1.520   2.966
29272SOL    HW289824   8.392   1.475   3.093
29273SOL     OW89825   8.772   0.586   3.284
29273SOL    HW189826   8.807   0.550   3.368
29273SOL    HW289827   8.822   0.669   3.275
29274SOL     OW89828   8.263   1.407   2.789
29274SOL    HW189829   8.351   1.391   2.750
29274SOL    HW289830   8.206   1.410   2.711
29275SOL     OW89831   8.387   0.530   2.769
29275SOL    HW189832   8.359   0.513   2.676
29275SOL    HW289833   8.415   0.441   2.795
29276SOL     OW89834   7.988   0.027   2.368
29276SOL    HW189835   7.900   0.024   2.411
29276SOL    HW289836   7.977   0.103   2.308
29277SOL     OW89837   8.886   1.177   1.879
29277SOL    HW189838   8.914   1.106   1.941
29277SOL    HW289839   8.815   1.221   1.928
29278SOL     OW89840   7.742   0.037   2.080
29278SOL    HW189841   7.798   0.111   2.054
29278SOL    HW289842   7.806  11.073   2.111
29279SOL     OW89843   8.374   0.249   2.346
29279SOL    HW189844   8.350   0.289   2.260
29279SOL    HW289845   8.471   0.254   2.342
29280SOL     OW89846   8.535   0.706   3.330
29280SOL    HW189847   8.468   0.637   3.335
29280SOL    HW289848   8.618   0.656   3.314
29281SOL     OW89849   8.668   1.585   2.661
29281SOL    HW189850   8.670   1.637   2.579
29281SOL    HW289851   8.753   1.606   2.699
29282SOL     OW89852   7.923   1.167   2.605
29282SOL    HW189853   7.849   1.134   2.660
29282SOL    HW289854   7.887   1.151   2.515
29283SOL     OW89855   8.708   1.814   2.457
29283SOL    HW189856   8.761   1.878   2.405
29283SOL    HW289857   8.673   1.872   2.526
29284SOL     OW89858   8.498   0.552   1.877
29284SOL    HW189859   8.451   0.633   1.852
29284SOL    HW289860   8.572   0.586   1.929
29285SOL     OW89861   7.505   0.563   3.247
29285SOL    HW189862   7.600   0.556   3.230
29285SOL    HW289863   7.502   0.629   3.319
29286SOL     OW89864   8.003   0.234   3.042
29286SOL    HW189865   8.048   0.172   3.100
29286SOL    HW289866   7.910   0.225   3.073
29287SOL     OW89867   8.320   0.447   2.524
29287SOL    HW189868   8.277   0.501   2.457
29287SOL    HW289869   8.338   0.364   2.475
29288SOL     OW89870   8.431   0.014   2.631
29288SOL    HW189871   8.374   0.045   2.558
29288SOL    HW289872   8.397  11.025   2.644
29289SOL     OW89873   8.870   1.179   2.744
29289SOL    HW189874   8.798   1.115   2.745
29289SOL    HW289875   8.893   1.180   2.649
29290SOL     OW89876   8.934   0.609   2.827
29290SOL    HW189877   8.872   0.534   2.830
29290SOL    HW289878   8.986   0.597   2.909
29291SOL     OW89879   9.317   0.808   2.234
29291SOL    HW189880   9.366   0.764   2.306
29291SOL    HW289881   9.292   0.732   2.176
29292SOL     OW89882   7.934   1.425   1.981
29292SOL    HW189883   7.853   1.410   2.032
29292SOL    HW289884   7.925   1.362   1.908
29293SOL     OW89885   9.123   1.298   2.563
29293SOL    HW189886   9.140   1.254   2.478
29293SOL    HW289887   9.080   1.380   2.536
29294SOL     OW89888   8.855   0.594   1.933
29294SOL    HW189889   8.810   0.569   2.016
29294SOL    HW289890   8.946   0.564   1.949
29295SOL     OW89891   7.960   0.240   2.173
29295SOL    HW189892   8.022   0.213   2.104
29295SOL    HW289893   7.932   0.328   2.139
29296SOL     OW89894   9.184   1.234   3.442
29296SOL    HW189895   9.275   1.200   3.445
29296SOL    HW289896   9.201   1.330   3.452
29297SOL     OW89897   8.513   1.367   3.208
29297SOL    HW189898   8.439   1.325   3.254
29297SOL    HW289899   8.589   1.316   3.243
29298SOL     OW89900   9.065   1.618   3.511
29298SOL    HW189901   9.061   1.652   3.420
29298SOL    HW289902   9.147   1.564   3.505
29299SOL     OW89903   8.580   1.223   2.973
29299SOL    HW189904   8.510   1.263   3.026
29299SOL    HW289905   8.561   1.256   2.884
29300SOL     OW89906   9.045   1.096   2.938
29300SOL    HW189907   9.050   1.162   3.010
29300SOL    HW289908   8.992   1.143   2.872
29301SOL     OW89909   8.354   0.111   3.262
29301SOL    HW189910   8.376   0.081   3.172
29301SOL    HW289911   8.442   0.137   3.294
29302SOL     OW89912   8.456   1.114   3.617
29302SOL    HW189913   8.363   1.140   3.629
29302SOL    HW289914   8.450   1.045   3.548
29303SOL     OW89915   8.158   1.059   2.205
29303SOL    HW189916   8.146   1.041   2.300
29303SOL    HW289917   8.236   1.003   2.183
29304SOL     OW89918   7.875   0.799   3.128
29304SOL    HW189919   7.945   0.793   3.196
29304SOL    HW289920   7.831   0.712   3.135
29305SOL     OW89921   8.731   0.380   3.122
29305SOL    HW189922   8.746   0.458   3.179
29305SOL    HW289923   8.637   0.389   3.098
29306SOL     OW89924   7.530   1.562   3.212
29306SOL    HW189925   7.527   1.653   3.180
29306SOL    HW289926   7.626   1.542   3.206
29307SOL     OW89927   7.823   1.119   2.365
29307SOL    HW189928   7.837   1.181   2.293
29307SOL    HW289929   7.803   1.037   2.317
29308SOL     OW89930   7.975   0.556   2.691
29308SOL    HW189931   8.008   0.619   2.623
29308SOL    HW289932   8.043   0.559   2.760
29309SOL     OW89933   8.669   1.335   2.252
29309SOL    HW189934   8.716   1.409   2.293
29309SOL    HW289935   8.578   1.348   2.284
29310SOL     OW89936   8.746   1.472   3.033
29310SOL    HW189937   8.813   1.469   3.104
29310SOL    HW289938   8.697   1.390   3.047
29311SOL     OW89939   9.041   0.636   2.330
29311SOL    HW189940   8.993   0.692   2.394
29311SOL    HW289941   9.069   0.701   2.265
29312SOL     OW89942   7.790   1.496   3.182
29312SOL    HW189943   7.780   1.468   3.088
29312SOL    HW289944   7.885   1.517   3.183
29313SOL     OW89945   7.884   0.727   3.490
29313SOL    HW189946   7.943   0.778   3.433
29313SOL    HW289947   7.907   0.636   3.465
29314SOL     OW89948   9.069   0.775   3.554
29314SOL    HW189949   8.977   0.806   3.548
29314SOL    HW289950   9.108   0.820   3.476
29315SOL     OW89951   8.448   0.161   3.628
29315SOL    HW189952   8.500   0.237   3.595
29315SOL    HW289953   8.502   0.087   3.596
29316SOL     OW89954   8.013   0.899   2.898
29316SOL    HW189955   8.062   0.982   2.905
29316SOL    HW289956   7.979   0.886   2.988
29317SOL     OW89957   8.802   0.862   2.898
29317SOL    HW189958   8.722   0.830   2.853
29317SOL    HW289959   8.861   0.786   2.887
29318SOL     OW89960   8.684   0.512   2.132
29318SOL    HW189961   8.688   0.434   2.190
29318SOL    HW289962   8.619   0.567   2.180
29319SOL     OW89963   7.750   0.209   3.131
29319SOL    HW189964   7.699   0.249   3.203
29319SOL    HW289965   7.698   0.130   3.110
29320SOL     OW89966   7.481   1.299   3.142
29320SOL    HW189967   7.501   1.242   3.218
29320SOL    HW289968   7.493   1.389   3.177
29321SOL     OW89969   8.156   0.611   2.895
29321SOL    HW189970   8.244   0.590   2.857
29321SOL    HW289971   8.148   0.707   2.885
29322SOL     OW89972   9.217   0.962   3.711
29322SOL    HW189973   9.171   0.906   3.647
29322SOL    HW289974   9.148   0.977   3.777
29323SOL     OW89975   7.741   0.024   2.487
29323SOL    HW189976   7.721   0.120   2.491
29323SOL    HW289977   7.756   0.006   2.582
29324SOL     OW89978   9.041   0.391   2.197
29324SOL    HW189979   9.087   0.329   2.255
29324SOL    HW289980   9.033   0.471   2.254
29325SOL     OW89981   8.531   0.749   2.831
29325SOL    HW189982   8.501   0.771   2.921
29325SOL    HW289983   8.488   0.662   2.819
29326SOL     OW89984   8.426   1.563   3.566
29326SOL    HW189985   8.413   1.622   3.489
29326SOL    HW289986   8.461   1.482   3.525
29327SOL     OW89987   9.301   1.495   3.466
29327SOL    HW189988   9.322   1.520   3.374
29327SOL    HW289989   9.385   1.517   3.512
29328SOL     OW89990   7.803   0.896   3.670
29328SOL    HW189991   7.892   0.917   3.698
29328SOL    HW289992   7.819   0.824   3.605
29329SOL     OW89993   8.951   0.253   1.975
29329SOL    HW189994   8.874   0.205   2.011
29329SOL    HW289995   8.982   0.306   2.051
29330SOL     OW89996   8.715   0.821   1.872
29330SOL    HW189997   8.777   0.748   1.890
29330SOL    HW289998   8.755   0.859   1.791
29331SOL     OW89999   8.517   1.360   2.717
29331SOL    HW190000   8.533   1.283   2.659
29331SOL    HW290001   8.584   1.426   2.690
29332SOL     OW90002   7.736   0.821   2.861
29332SOL    HW190003   7.830   0.844   2.848
29332SOL    HW290004   7.743   0.726   2.881
29333SOL     OW90005   7.777   0.542   2.864
29333SOL    HW190006   7.745   0.451   2.847
29333SOL    HW290007   7.842   0.552   2.791
29334SOL     OW90008   8.584   0.391   3.543
29334SOL    HW190009   8.548   0.443   3.617
29334SOL    HW290010   8.677   0.422   3.541
29335SOL     OW90011   8.612   0.219   3.322
29335SOL    HW190012   8.600   0.291   3.387
29335SOL    HW290013   8.648   0.268   3.246
29336SOL     OW90014   7.446   1.323   2.063
29336SOL    HW190015   7.355   1.340   2.031
29336SOL    HW290016   7.439   1.230   2.093
29337SOL     OW90017   7.546   1.784   2.804
29337SOL    HW190018   7.519   1.713   2.742
29337SOL    HW290019   7.637   1.800   2.774
29338SOL     OW90020   7.938   1.584   2.794
29338SOL    HW190021   8.004   1.655   2.811
29338SOL    HW290022   7.988   1.524   2.736
29339SOL     OW90023   8.416   0.755   3.084
29339SOL    HW190024   8.476   0.743   3.159
29339SOL    HW290025   8.330   0.735   3.123
29340SOL     OW90026   7.464   0.509   2.966
29340SOL    HW190027   7.541   0.513   2.908
29340SOL    HW290028   7.502   0.530   3.052
29341SOL     OW90029   7.662   0.512   3.582
29341SOL    HW190030   7.697   0.461   3.508
29341SOL    HW290031   7.627   0.591   3.537
29342SOL     OW90032   8.827   0.922   3.518
29342SOL    HW190033   8.857   1.014   3.516
29342SOL    HW290034   8.818   0.902   3.423
29343SOL     OW90035   8.252   0.573   2.251
29343SOL    HW190036   8.271   0.504   2.185
29343SOL    HW290037   8.181   0.623   2.208
29344SOL     OW90038   9.090   0.609   3.055
29344SOL    HW190039   9.074   0.535   3.114
29344SOL    HW290040   9.179   0.588   3.019
29345SOL     OW90041   7.691   1.541   3.584
29345SOL    HW190042   7.683   1.608   3.652
29345SOL    HW290043   7.697   1.458   3.636
29346SOL     OW90044   8.136   0.465   3.129
29346SOL    HW190045   8.085   0.386   3.102
29346SOL    HW290046   8.128   0.521   3.049
29347SOL     OW90047   8.369   1.707   3.351
29347SOL    HW190048   8.362   1.659   3.267
29347SOL    HW290049   8.365   1.800   3.323
29348SOL     OW90050   7.896   0.474   2.065
29348SOL    HW190051   7.957   0.549   2.073
29348SOL    HW290052   7.811   0.521   2.054
29349SOL     OW90053   7.553   1.136   3.334
29349SOL    HW190054   7.569   1.078   3.413
29349SOL    HW290055   7.581   1.077   3.261
29350SOL     OW90056   8.760   1.044   3.096
29350SOL    HW190057   8.783   0.986   3.020
29350SOL    HW290058   8.698   1.106   3.054
29351SOL     OW90059   8.759   0.840   2.148
29351SOL    HW190060   8.677   0.830   2.198
29351SOL    HW290061   8.730   0.847   2.056
29352SOL     OW90062   9.217   1.750   2.994
29352SOL    HW190063   9.289   1.767   2.930
29352SOL    HW290064   9.200   1.655   2.976
29353SOL     OW90065   8.687   1.730   2.981
29353SOL    HW190066   8.777   1.753   2.955
29353SOL    HW290067   8.694   1.634   2.997
29354SOL     OW90068   7.543   1.247   2.893
29354SOL    HW190069   7.518   1.266   2.986
29354SOL    HW290070   7.461   1.211   2.857
29355SOL     OW90071   8.135   1.645   3.595
29355SOL    HW190072   8.092   1.730   3.585
29355SOL    HW290073   8.219   1.657   3.547
29356SOL     OW90074   9.147   0.117   2.364
29356SOL    HW190075   9.223   0.129   2.303
29356SOL    HW290076   9.177   0.049   2.425
29357SOL     OW90077   8.800   1.577   2.348
29357SOL    HW190078   8.864   1.593   2.275
29357SOL    HW290079   8.764   1.666   2.363
29358SOL     OW90080   7.588   1.799   3.697
29358SOL    HW190081   7.552   1.723   3.749
29358SOL    HW290082   7.626   1.853   3.768
29359SOL     OW90083   8.705   0.919   2.544
29359SOL    HW190084   8.784   0.862   2.549
29359SOL    HW290085   8.738   0.996   2.495
29360SOL     OW90086   8.245   1.246   3.284
29360SOL    HW190087   8.223   1.293   3.367
29360SOL    HW290088   8.171   1.273   3.228
29361SOL     OW90089   8.110   1.618   2.016
29361SOL    HW190090   8.128   1.627   1.920
29361SOL    HW290091   8.049   1.541   2.014
29362SOL     OW90092   9.072   1.718   3.251
29362SOL    HW190093   9.117   1.733   3.166
29362SOL    HW290094   9.058   1.809   3.284
29363SOL     OW90095   9.311   0.122   2.806
29363SOL    HW190096   9.337   0.059   2.738
29363SOL    HW290097   9.229   0.162   2.769
29364SOL     OW90098   7.693   0.293   2.560
29364SOL    HW190099   7.610   0.340   2.539
29364SOL    HW290100   7.698   0.302   2.656
29365SOL     OW90101   8.631   1.631   1.887
29365SOL    HW190102   8.637   1.536   1.908
29365SOL    HW290103   8.581   1.632   1.804
29366SOL     OW90104   8.269   0.984   3.240
29366SOL    HW190105   8.298   0.985   3.149
29366SOL    HW290106   8.262   1.080   3.261
29367SOL     OW90107   8.360   0.906   2.140
29367SOL    HW190108   8.433   0.936   2.082
29367SOL    HW290109   8.399   0.829   2.184
29368SOL     OW90110   8.910   1.593   1.943
29368SOL    HW190111   8.819   1.604   1.914
29368SOL    HW290112   8.957   1.616   1.859
29369SOL     OW90113   7.785   1.284   3.351
29369SOL    HW190114   7.777   1.358   3.288
29369SOL    HW290115   7.703   1.235   3.337
29370SOL     OW90116   9.057   1.308   3.123
29370SOL    HW190117   9.101   1.273   3.201
29370SOL    HW290118   9.003   1.380   3.161
29371SOL     OW90119   8.504   1.122   2.590
29371SOL    HW190120   8.426   1.070   2.617
29371SOL    HW290121   8.565   1.053   2.560
29372SOL     OW90122   8.482   0.237   2.842
29372SOL    HW190123   8.467   0.193   2.756
29372SOL    HW290124   8.472   0.161   2.902
29373SOL     OW90125   8.058   1.484   2.351
29373SOL    HW190126   8.111   1.436   2.285
29373SOL    HW290127   7.990   1.525   2.297
29374SOL     OW90128   9.155   0.375   3.246
29374SOL    HW190129   9.211   0.454   3.239
29374SOL    HW290130   9.197   0.315   3.181
29375SOL     OW90131   7.695   1.382   2.136
29375SOL    HW190132   7.599   1.367   2.129
29375SOL    HW290133   7.704   1.410   2.229
29376SOL     OW90134   7.584   1.000   3.556
29376SOL    HW190135   7.510   0.985   3.618
29376SOL    HW290136   7.662   0.968   3.607
29377SOL     OW90137   8.110   0.216   3.348
29377SOL    HW190138   8.191   0.176   3.309
29377SOL    HW290139   8.138   0.227   3.441
29378SOL     OW90140   7.524   0.360   1.897
29378SOL    HW190141   7.431   0.367   1.872
29378SOL    HW290142   7.565   0.422   1.834
29379SOL     OW90143   8.892   0.848   3.258
29379SOL    HW190144   8.857   0.913   3.196
29379SOL    HW290145   8.988   0.861   3.248
29380SOL     OW90146   7.490   0.176   2.185
29380SOL    HW190147   7.492   0.240   2.113
29380SOL    HW290148   7.575   0.130   2.174
29381SOL     OW90149   8.652   1.366   1.979
29381SOL    HW190150   8.576   1.307   1.982
29381SOL    HW290151   8.681   1.363   2.073
29382SOL     OW90152   8.071   0.798   3.308
29382SOL    HW190153   8.122   0.880   3.291
29382SOL    HW290154   8.144   0.734   3.310
29383SOL     OW90155   8.959   1.792   2.824
29383SOL    HW190156   8.990   1.824   2.737
29383SOL    HW290157   9.041   1.764   2.865
29384SOL     OW90158   8.189   0.561   3.590
29384SOL    HW190159   8.227   0.642   3.628
29384SOL    HW290160   8.265   0.503   3.585
29385SOL     OW90161   8.908   1.185   3.493
29385SOL    HW190162   8.904   1.191   3.591
29385SOL    HW290163   9.002   1.206   3.475
29386SOL     OW90164   7.819   1.729   3.425
29386SOL    HW190165   7.736   1.777   3.409
29386SOL    HW290166   7.786   1.645   3.461
29387SOL     OW90167   9.144   0.895   3.097
29387SOL    HW190168   9.115   0.810   3.058
29387SOL    HW290169   9.108   0.960   3.033
29388SOL     OW90170   8.664   0.297   2.319
29388SOL    HW190171   8.720   0.218   2.323
29388SOL    HW290172   8.700   0.351   2.393
29389SOL     OW90173   8.036   0.751   2.507
29389SOL    HW190174   8.071   0.840   2.496
29389SOL    HW290175   7.960   0.749   2.446
29390SOL     OW90176   9.219   0.366   3.505
29390SOL    HW190177   9.195   0.372   3.411
29390SOL    HW290178   9.142   0.318   3.540
29391SOL     OW90179   9.171   0.938   3.363
29391SOL    HW190180   9.189   1.032   3.366
29391SOL    HW290181   9.187   0.917   3.269
29392SOL     OW90182   8.300   1.362   1.890
29392SOL    HW190183   8.283   1.380   1.983
29392SOL    HW290184   8.330   1.448   1.855
29393SOL     OW90185   8.091   1.803   2.804
29393SOL    HW190186   8.084   1.898   2.784
29393SOL    HW290187   8.186   1.786   2.800
29394SOL     OW90188   8.313   0.946   2.704
29394SOL    HW190189   8.368   0.873   2.734
29394SOL    HW290190   8.300   0.999   2.784
29395SOL     OW90191   8.538   0.993   1.963
29395SOL    HW190192   8.511   1.054   1.892
29395SOL    HW290193   8.597   0.932   1.915
29396SOL     OW90194   9.315   1.554   2.700
29396SOL    HW190195   9.224   1.534   2.675
29396SOL    HW290196   9.339   1.477   2.752
29397SOL     OW90197   7.688   1.313   3.726
29397SOL    HW190198   7.601   1.281   3.697
29397SOL    HW290199   7.673   1.327   3.821
29398SOL     OW90200   7.534   1.257   2.523
29398SOL    HW190201   7.548   1.201   2.600
29398SOL    HW290202   7.608   1.230   2.466
29399SOL     OW90203   8.125   1.392   3.479
29399SOL    HW190204   8.045   1.346   3.509
29399SOL    HW290205   8.112   1.481   3.516
29400SOL     OW90206   9.267   0.194   3.076
29400SOL    HW190207   9.238   0.101   3.076
29400SOL    HW290208   9.283   0.206   2.981
29401SOL     OW90209   7.860   0.414   2.368
29401SOL    HW190210   7.900   0.340   2.320
29401SOL    HW290211   7.824   0.372   2.448
29402SOL     OW90212   9.165   1.495   2.945
29402SOL    HW190213   9.083   1.470   2.898
29402SOL    HW290214   9.167   1.428   3.015
29403SOL     OW90215   7.773   0.547   3.146
29403SOL    HW190216   7.843   0.497   3.191
29403SOL    HW290217   7.790   0.530   3.051
29404SOL     OW90218   8.268   1.592   2.541
29404SOL    HW190219   8.263   1.626   2.451
29404SOL    HW290220   8.187   1.539   2.548
29405SOL     OW90221   8.894   0.258   2.950
29405SOL    HW190222   8.913   0.173   2.991
29405SOL    HW290223   8.842   0.303   3.020
29406SOL     OW90224   8.445   0.006   3.019
29406SOL    HW190225   8.398  11.022   3.018
29406SOL    HW290226   8.538  11.078   3.010
29407SOL     OW90227   8.228   1.340   2.182
29407SOL    HW190228   8.199   1.248   2.177
29407SOL    HW290229   8.302   1.336   2.245
29408SOL     OW90230   8.045   1.557   3.141
29408SOL    HW190231   8.047   1.644   3.185
29408SOL    HW290232   8.136   1.553   3.107
29409SOL     OW90233   8.764   0.070   2.043
29409SOL    HW190234   8.774  11.095   1.985
29409SOL    HW290235   8.673   0.057   2.077
29410SOL     OW90236   8.724   0.460   2.521
29410SOL    HW190237   8.674   0.543   2.514
29410SOL    HW290238   8.713   0.436   2.614
29411SOL     OW90239   9.072   0.220   2.731
29411SOL    HW190240   9.003   0.231   2.799
29411SOL    HW290241   9.063   0.304   2.683
29412SOL     OW90242   7.490   1.065   2.169
29412SOL    HW190243   7.583   1.056   2.142
29412SOL    HW290244   7.469   0.971   2.189
29413SOL     OW90245   8.321   1.642   2.189
29413SOL    HW190246   8.243   1.628   2.131
29413SOL    HW290247   8.298   1.721   2.242
29414SOL     OW90248   7.682   0.621   3.849
29414SOL    HW190249   7.591   0.614   3.881
29414SOL    HW290250   7.673   0.601   3.754
29415SOL     OW90251   7.653   0.303   4.710
29415SOL    HW190252   7.682   0.285   4.802
29415SOL    HW290253   7.588   0.231   4.696
29416SOL     OW90254   7.451   0.398   4.361
29416SOL    HW190255   7.375   0.431   4.412
29416SOL    HW290256   7.412   0.326   4.311
29417SOL     OW90257   8.018   1.294   4.928
29417SOL    HW190258   7.930   1.291   4.887
29417SOL    HW290259   8.023   1.387   4.957
29418SOL     OW90260   8.979   1.526   4.436
29418SOL    HW190261   8.953   1.512   4.529
29418SOL    HW290262   8.894   1.528   4.389
29419SOL     OW90263   8.573   0.696   4.431
29419SOL    HW190264   8.607   0.786   4.424
29419SOL    HW290265   8.542   0.694   4.524
29420SOL     OW90266   9.235   0.604   3.952
29420SOL    HW190267   9.212   0.593   3.858
29420SOL    HW290268   9.198   0.523   3.989
29421SOL     OW90269   8.189   1.165   4.759
29421SOL    HW190270   8.127   1.209   4.820
29421SOL    HW290271   8.228   1.242   4.713
29422SOL     OW90272   8.329   0.766   5.523
29422SOL    HW190273   8.309   0.824   5.598
29422SOL    HW290274   8.353   0.828   5.453
29423SOL     OW90275   8.134   1.025   4.370
29423SOL    HW190276   8.202   1.012   4.439
29423SOL    HW290277   8.066   1.076   4.417
29424SOL     OW90278   8.150   1.161   5.524
29424SOL    HW190279   8.194   1.244   5.553
29424SOL    HW290280   8.062   1.192   5.497
29425SOL     OW90281   7.771   1.426   4.789
29425SOL    HW190282   7.698   1.388   4.738
29425SOL    HW290283   7.818   1.483   4.724
29426SOL     OW90284   8.924   1.504   5.098
29426SOL    HW190285   8.980   1.583   5.113
29426SOL    HW290286   8.854   1.516   5.164
29427SOL     OW90287   7.898   0.411   5.217
29427SOL    HW190288   7.972   0.349   5.205
29427SOL    HW290289   7.821   0.352   5.224
29428SOL     OW90290   9.061   0.447   4.469
29428SOL    HW190291   8.995   0.463   4.400
29428SOL    HW290292   9.042   0.518   4.533
29429SOL     OW90293   7.704   1.684   4.225
29429SOL    HW190294   7.717   1.773   4.263
29429SOL    HW290295   7.721   1.701   4.131
29430SOL     OW90296   8.579   1.356   5.390
29430SOL    HW190297   8.619   1.351   5.477
29430SOL    HW290298   8.534   1.269   5.387
29431SOL     OW90299   7.707   1.421   4.253
29431SOL    HW190300   7.702   1.520   4.256
29431SOL    HW290301   7.629   1.396   4.305
29432SOL     OW90302   7.724   1.096   4.625
29432SOL    HW190303   7.717   1.018   4.683
29432SOL    HW290304   7.665   1.159   4.671
29433SOL     OW90305   8.047   1.793   5.137
29433SOL    HW190306   7.973   1.767   5.194
29433SOL    HW290307   8.067   1.884   5.167
29434SOL     OW90308   8.052   0.979   3.840
29434SOL    HW190309   8.084   1.035   3.766
29434SOL    HW290310   8.099   1.022   3.915
29435SOL     OW90311   9.053   0.102   5.210
29435SOL    HW190312   9.070   0.149   5.127
29435SOL    HW290313   9.016   0.172   5.266
29436SOL     OW90314   7.581   0.661   4.292
29436SOL    HW190315   7.545   0.576   4.321
29436SOL    HW290316   7.568   0.716   4.372
29437SOL     OW90317   9.291   1.730   4.081
29437SOL    HW190318   9.371   1.711   4.135
29437SOL    HW290319   9.307   1.822   4.058
29438SOL     OW90320   7.511   1.595   3.850
29438SOL    HW190321   7.487   1.503   3.869
29438SOL    HW290322   7.487   1.640   3.934
29439SOL     OW90323   9.123   0.931   4.391
29439SOL    HW190324   9.210   0.889   4.394
29439SOL    HW290325   9.118   0.960   4.300
29440SOL     OW90326   9.092   1.127   4.170
29440SOL    HW190327   9.180   1.118   4.129
29440SOL    HW290328   9.111   1.194   4.239
29441SOL     OW90329   7.574   0.739   5.302
29441SOL    HW190330   7.665   0.771   5.303
29441SOL    HW290331   7.526   0.819   5.329
29442SOL     OW90332   8.050   1.405   4.481
29442SOL    HW190333   8.012   1.315   4.496
29442SOL    HW290334   8.033   1.416   4.386
29443SOL     OW90335   8.732   1.228   5.145
29443SOL    HW190336   8.761   1.156   5.087
29443SOL    HW290337   8.785   1.212   5.226
29444SOL     OW90338   8.268  11.099   4.233
29444SOL    HW190339   8.296   0.089   4.215
29444SOL    HW290340   8.173  11.101   4.215
29445SOL     OW90341   7.628   0.979   4.988
29445SOL    HW190342   7.718   0.944   4.975
29445SOL    HW290343   7.573   0.921   4.934
29446SOL     OW90344   8.982   0.973   3.913
29446SOL    HW190345   8.913   0.909   3.935
29446SOL    HW290346   9.038   0.973   3.991
29447SOL     OW90347   8.610   1.805   5.335
29447SOL    HW190348   8.619   1.872   5.265
29447SOL    HW290349   8.636   1.724   5.288
29448SOL     OW90350   7.773   0.251   5.538
29448SOL    HW190351   7.802   0.335   5.575
29448SOL    HW290352   7.676   0.257   5.549
29449SOL     OW90353   8.919   1.426   4.688
29449SOL    HW190354   8.859   1.449   4.762
29449SOL    HW290355   8.884   1.339   4.660
29450SOL     OW90356   9.122   1.727   4.333
29450SOL    HW190357   9.136   1.677   4.252
29450SOL    HW290358   9.080   1.659   4.390
29451SOL     OW90359   8.714   0.367   4.658
29451SOL    HW190360   8.630   0.319   4.673
29451SOL    HW290361   8.776   0.314   4.712
29452SOL     OW90362   9.015   1.666   4.033
29452SOL    HW190363   9.112   1.660   4.039
29452SOL    HW290364   9.003   1.654   3.937
29453SOL     OW90365   8.267   0.612   5.182
29453SOL    HW190366   8.237   0.590   5.273
29453SOL    HW290367   8.218   0.545   5.129
29454SOL     OW90368   8.843   0.491   5.392
29454SOL    HW190369   8.843   0.540   5.476
29454SOL    HW290370   8.908   0.420   5.408
29455SOL     OW90371   8.417   0.918   5.308
29455SOL    HW190372   8.472   0.843   5.275
29455SOL    HW290373   8.367   0.941   5.226
29456SOL     OW90374   8.453   0.383   4.954
29456SOL    HW190375   8.368   0.406   4.992
29456SOL    HW290376   8.430   0.333   4.875
29457SOL     OW90377   8.495   0.691   4.156
29457SOL    HW190378   8.510   0.692   4.252
29457SOL    HW290379   8.409   0.645   4.149
29458SOL     OW90380   7.569   0.832   4.500
29458SOL    HW190381   7.627   0.825   4.578
29458SOL    HW290382   7.518   0.912   4.519
29459SOL     OW90383   7.562   1.847   5.295
29459SOL    HW190384   7.573   1.829   5.391
29459SOL    HW290385   7.467   1.839   5.283
29460SOL     OW90386   8.334   0.359   3.936
29460SOL    HW190387   8.385   0.407   3.869
29460SOL    HW290388   8.332   0.270   3.900
29461SOL     OW90389   9.162   0.567   5.560
29461SOL    HW190390   9.127   0.650   5.520
29461SOL    HW290391   9.185   0.517   5.481
29462SOL     OW90392   7.990   0.197   4.620
29462SOL    HW190393   8.017   0.214   4.712
29462SOL    HW290394   7.988   0.284   4.579
29463SOL     OW90395   8.442   1.437   4.217
29463SOL    HW190396   8.402   1.500   4.155
29463SOL    HW290397   8.430   1.483   4.301
29464SOL     OW90398   7.790   1.817   4.582
29464SOL    HW190399   7.843   1.735   4.594
29464SOL    HW290400   7.857   1.886   4.594
29465SOL     OW90401   9.265   1.050   4.594
29465SOL    HW190402   9.204   1.029   4.522
29465SOL    HW290403   9.213   1.028   4.673
29466SOL     OW90404   8.673   1.564   5.215
29466SOL    HW190405   8.652   1.502   5.286
29466SOL    HW290406   8.625   1.525   5.141
29467SOL     OW90407   7.766   0.949   3.968
29467SOL    HW190408   7.784   1.015   3.900
29467SOL    HW290409   7.703   0.890   3.924
29468SOL     OW90410   8.921   0.752   4.439
29468SOL    HW190411   8.912   0.700   4.521
29468SOL    HW290412   8.997   0.808   4.458
29469SOL     OW90413   7.907   1.275   5.448
29469SOL    HW190414   7.866   1.279   5.359
29469SOL    HW290415   7.828   1.277   5.505
29470SOL     OW90416   8.550   1.767   3.968
29470SOL    HW190417   8.477   1.718   4.009
29470SOL    HW290418   8.559   1.721   3.882
29471SOL     OW90419   7.629   0.303   5.221
29471SOL    HW190420   7.549   0.354   5.237
29471SOL    HW290421   7.600   0.213   5.249
29472SOL     OW90422   9.064   1.383   3.823
29472SOL    HW190423   9.030   1.462   3.780
29472SOL    HW290424   9.005   1.313   3.788
29473SOL     OW90425   7.904   1.747   4.035
29473SOL    HW190426   7.949   1.790   4.110
29473SOL    HW290427   7.977   1.714   3.981
29474SOL     OW90428   8.841   0.084   4.179
29474SOL    HW190429   8.840   0.077   4.082
29474SOL    HW290430   8.933   0.105   4.200
29475SOL     OW90431   7.692   1.790   4.949
29475SOL    HW190432   7.749   1.724   4.991
29475SOL    HW290433   7.681   1.755   4.860
29476SOL     OW90434   8.410   1.701   4.607
29476SOL    HW190435   8.469   1.636   4.646
29476SOL    HW290436   8.361   1.648   4.540
29477SOL     OW90437   7.845   0.695   4.181
29477SOL    HW190438   7.859   0.598   4.194
29477SOL    HW290439   7.757   0.707   4.222
29478SOL     OW90440   8.987   0.239   5.439
29478SOL    HW190441   8.989   0.249   5.537
29478SOL    HW290442   8.930   0.161   5.434
29479SOL     OW90443   8.056   0.105   3.821
29479SOL    HW190444   8.081   0.012   3.839
29479SOL    HW290445   8.072   0.116   3.726
29480SOL     OW90446   8.224   0.290   5.475
29480SOL    HW190447   8.306   0.237   5.478
29480SOL    HW290448   8.172   0.249   5.546
29481SOL     OW90449   8.332   1.547   4.916
29481SOL    HW190450   8.316   1.517   4.825
29481SOL    HW290451   8.384   1.473   4.953
29482SOL     OW90452   8.763   0.586   5.152
29482SOL    HW190453   8.801   0.549   5.235
29482SOL    HW290454   8.820   0.663   5.137
29483SOL     OW90455   8.273   1.408   4.657
29483SOL    HW190456   8.358   1.391   4.612
29483SOL    HW290457   8.210   1.410   4.584
29484SOL     OW90458   8.400   0.530   4.636
29484SOL    HW190459   8.369   0.507   4.545
29484SOL    HW290460   8.423   0.443   4.670
29485SOL     OW90461   7.981   0.016   4.215
29485SOL    HW190462   7.898   0.022   4.266
29485SOL    HW290463   7.974   0.097   4.161
29486SOL     OW90464   8.894   1.188   3.758
29486SOL    HW190465   8.916   1.110   3.813
29486SOL    HW290466   8.802   1.207   3.782
29487SOL     OW90467   7.752   0.041   3.942
29487SOL    HW190468   7.812   0.114   3.928
29487SOL    HW290469   7.807  11.077   3.987
29488SOL     OW90470   8.386   0.254   4.215
29488SOL    HW190471   8.372   0.289   4.125
29488SOL    HW290472   8.482   0.255   4.221
29489SOL     OW90473   8.539   0.717   5.190
29489SOL    HW190474   8.474   0.645   5.198
29489SOL    HW290475   8.623   0.669   5.178
29490SOL     OW90476   8.696   1.557   4.482
29490SOL    HW190477   8.676   1.627   4.419
29490SOL    HW290478   8.743   1.604   4.552
29491SOL     OW90479   7.930   1.163   4.466
29491SOL    HW190480   7.858   1.134   4.526
29491SOL    HW290481   7.887   1.150   4.379
29492SOL     OW90482   8.690   1.823   4.311
29492SOL    HW190483   8.657   1.888   4.247
29492SOL    HW290484   8.649   1.856   4.393
29493SOL     OW90485   8.496   0.565   3.732
29493SOL    HW190486   8.449   0.649   3.718
29493SOL    HW290487   8.570   0.591   3.789
29494SOL     OW90488   7.507   0.570   5.113
29494SOL    HW190489   7.602   0.560   5.096
29494SOL    HW290490   7.508   0.638   5.184
29495SOL     OW90491   8.005   0.232   4.909
29495SOL    HW190492   8.039   0.173   4.977
29495SOL    HW290493   7.909   0.229   4.926
29496SOL     OW90494   8.328   0.448   4.395
29496SOL    HW190495   8.278   0.497   4.330
29496SOL    HW290496   8.343   0.363   4.351
29497SOL     OW90497   8.439   0.021   4.497
29497SOL    HW190498   8.389   0.048   4.418
29497SOL    HW290499   8.395  11.039   4.520
29498SOL     OW90500   8.863   1.175   4.614
29498SOL    HW190501   8.811   1.099   4.644
29498SOL    HW290502   8.916   1.137   4.544
29499SOL     OW90503   8.932   0.597   4.675
29499SOL    HW190504   8.865   0.527   4.688
29499SOL    HW290505   8.983   0.593   4.758
29500SOL     OW90506   9.264   0.811   4.118
29500SOL    HW190507   9.327   0.771   4.181
29500SOL    HW290508   9.264   0.745   4.045
29501SOL     OW90509   7.946   1.421   3.848
29501SOL    HW190510   7.865   1.409   3.901
29501SOL    HW290511   7.930   1.366   3.771
29502SOL     OW90512   9.112   1.295   4.374
29502SOL    HW190513   9.208   1.298   4.388
29502SOL    HW290514   9.083   1.381   4.410
29503SOL     OW90515   8.860   0.605   3.790
29503SOL    HW190516   8.816   0.569   3.870
29503SOL    HW290517   8.947   0.563   3.795
29504SOL     OW90518   7.961   0.243   4.036
29504SOL    HW190519   8.008   0.201   3.961
29504SOL    HW290520   7.943   0.333   4.000
29505SOL     OW90521   9.183   1.233   5.295
29505SOL    HW190522   9.271   1.193   5.296
29505SOL    HW290523   9.205   1.326   5.316
29506SOL     OW90524   8.518   1.365   5.053
29506SOL    HW190525   8.440   1.333   5.101
29506SOL    HW290526   8.590   1.315   5.099
29507SOL     OW90527   9.066   1.608   5.363
29507SOL    HW190528   9.067   1.646   5.273
29507SOL    HW290529   9.148   1.555   5.362
29508SOL     OW90530   8.567   1.220   4.820
29508SOL    HW190531   8.520   1.261   4.893
29508SOL    HW290532   8.538   1.272   4.744
29509SOL     OW90533   9.040   1.094   4.801
29509SOL    HW190534   9.056   1.154   4.876
29509SOL    HW290535   8.981   1.149   4.746
29510SOL     OW90536   8.342   0.083   5.126
29510SOL    HW190537   8.371   0.063   5.035
29510SOL    HW290538   8.423   0.119   5.164
29511SOL     OW90539   8.451   1.130   5.470
29511SOL    HW190540   8.360   1.155   5.492
29511SOL    HW290541   8.437   1.057   5.405
29512SOL     OW90542   8.160   1.044   4.080
29512SOL    HW190543   8.158   1.046   4.178
29512SOL    HW290544   8.243   0.996   4.062
29513SOL     OW90545   7.872   0.806   4.978
29513SOL    HW190546   7.944   0.802   5.044
29513SOL    HW290547   7.825   0.723   4.994
29514SOL     OW90548   8.730   0.389   4.980
29514SOL    HW190549   8.741   0.461   5.044
29514SOL    HW290550   8.636   0.398   4.955
29515SOL     OW90551   7.525   1.569   5.065
29515SOL    HW190552   7.524   1.661   5.035
29515SOL    HW290553   7.620   1.546   5.060
29516SOL     OW90554   7.822   1.115   4.225
29516SOL    HW190555   7.847   1.179   4.158
29516SOL    HW290556   7.776   1.046   4.175
29517SOL     OW90557   7.975   0.544   4.559
29517SOL    HW190558   8.012   0.611   4.498
29517SOL    HW290559   8.038   0.547   4.634
29518SOL     OW90560   8.697   1.318   4.155
29518SOL    HW190561   8.728   1.409   4.173
29518SOL    HW290562   8.602   1.329   4.177
29519SOL     OW90563   8.753   1.468   4.896
29519SOL    HW190564   8.817   1.469   4.970
29519SOL    HW290565   8.685   1.407   4.927
29520SOL     OW90566   9.032   0.622   4.192
29520SOL    HW190567   8.990   0.675   4.261
29520SOL    HW290568   9.076   0.688   4.136
29521SOL     OW90569   7.786   1.503   5.037
29521SOL    HW190570   7.779   1.470   4.944
29521SOL    HW290571   7.878   1.535   5.038
29522SOL     OW90572   7.878   0.717   5.340
29522SOL    HW190573   7.937   0.765   5.280
29522SOL    HW290574   7.912   0.626   5.332
29523SOL     OW90575   9.075   0.776   5.416
29523SOL    HW190576   8.985   0.812   5.414
29523SOL    HW290577   9.113   0.817   5.335
29524SOL     OW90578   8.455   0.140   5.491
29524SOL    HW190579   8.514   0.216   5.478
29524SOL    HW290580   8.508   0.069   5.449
29525SOL     OW90581   7.944   0.053   5.471
29525SOL    HW190582   7.880  11.100   5.422
29525SOL    HW290583   7.888   0.131   5.493
29526SOL     OW90584   8.029   0.902   4.759
29526SOL    HW190585   8.064   0.992   4.766
29526SOL    HW290586   7.985   0.888   4.845
29527SOL     OW90587   8.799   0.879   4.736
29527SOL    HW190588   8.715   0.831   4.720
29527SOL    HW290589   8.858   0.806   4.759
29528SOL     OW90590   8.681   0.514   3.989
29528SOL    HW190591   8.695   0.437   4.048
29528SOL    HW290592   8.618   0.565   4.041
29529SOL     OW90593   7.740   0.219   4.977
29529SOL    HW190594   7.706   0.259   5.059
29529SOL    HW290595   7.695   0.134   4.976
29530SOL     OW90596   7.488   1.302   5.008
29530SOL    HW190597   7.506   1.246   5.086
29530SOL    HW290598   7.492   1.392   5.042
29531SOL     OW90599   8.155   0.599   4.758
29531SOL    HW190600   8.246   0.588   4.725
29531SOL    HW290601   8.141   0.695   4.755
29532SOL     OW90602   9.218   0.967   5.569
29532SOL    HW190603   9.170   0.908   5.508
29532SOL    HW290604   9.153   0.977   5.640
29533SOL     OW90605   7.738   0.058   4.328
29533SOL    HW190606   7.720   0.151   4.347
29533SOL    HW290607   7.750   0.025   4.419
29534SOL     OW90608   9.056   0.390   4.058
29534SOL    HW190609   9.087   0.320   4.116
29534SOL    HW290610   9.042   0.465   4.119
29535SOL     OW90611   8.543   0.748   4.702
29535SOL    HW190612   8.510   0.771   4.791
29535SOL    HW290613   8.499   0.661   4.690
29536SOL     OW90614   8.424   1.567   5.430
29536SOL    HW190615   8.415   1.622   5.348
29536SOL    HW290616   8.453   1.481   5.395
29537SOL     OW90617   9.303   1.490   5.322
29537SOL    HW190618   9.327   1.517   5.232
29537SOL    HW290619   9.382   1.516   5.373
29538SOL     OW90620   7.814   0.896   5.526
29538SOL    HW190621   7.898   0.911   5.570
29538SOL    HW290622   7.833   0.818   5.470
29539SOL     OW90623   8.953   0.266   3.837
29539SOL    HW190624   8.882   0.210   3.875
29539SOL    HW290625   8.993   0.309   3.915
29540SOL     OW90626   8.738   0.834   3.752
29540SOL    HW190627   8.791   0.751   3.760
29540SOL    HW290628   8.761   0.863   3.662
29541SOL     OW90629   8.518   1.368   4.569
29541SOL    HW190630   8.527   1.289   4.512
29541SOL    HW290631   8.588   1.427   4.535
29542SOL     OW90632   7.736   0.827   4.721
29542SOL    HW190633   7.829   0.850   4.708
29542SOL    HW290634   7.742   0.732   4.743
29543SOL     OW90635   7.775   0.543   4.724
29543SOL    HW190636   7.733   0.456   4.704
29543SOL    HW290637   7.844   0.546   4.655
29544SOL     OW90638   8.602   0.375   5.406
29544SOL    HW190639   8.554   0.430   5.471
29544SOL    HW290640   8.689   0.419   5.405
29545SOL     OW90641   8.618   0.215   5.185
29545SOL    HW190642   8.612   0.280   5.258
29545SOL    HW290643   8.640   0.273   5.110
29546SOL     OW90644   7.457   1.321   3.915
29546SOL    HW190645   7.367   1.344   3.881
29546SOL    HW290646   7.437   1.237   3.959
29547SOL     OW90647   7.540   1.783   4.663
29547SOL    HW190648   7.511   1.712   4.603
29547SOL    HW290649   7.632   1.799   4.631
29548SOL     OW90650   7.931   1.579   4.642
29548SOL    HW190651   8.001   1.645   4.658
29548SOL    HW290652   7.977   1.513   4.587
29549SOL     OW90653   8.421   0.760   4.944
29549SOL    HW190654   8.475   0.744   5.024
29549SOL    HW290655   8.332   0.751   4.980
29550SOL     OW90656   7.471   0.530   4.838
29550SOL    HW190657   7.547   0.507   4.784
29550SOL    HW290658   7.510   0.538   4.926
29551SOL     OW90659   7.654   0.513   5.443
29551SOL    HW190660   7.690   0.452   5.377
29551SOL    HW290661   7.628   0.590   5.391
29552SOL     OW90662   8.832   0.908   5.373
29552SOL    HW190663   8.857   1.002   5.376
29552SOL    HW290664   8.823   0.892   5.278
29553SOL     OW90665   8.250   0.577   4.094
29553SOL    HW190666   8.283   0.505   4.038
29553SOL    HW290667   8.157   0.555   4.102
29554SOL     OW90668   9.080   0.619   4.901
29554SOL    HW190669   9.061   0.557   4.972
29554SOL    HW290670   9.170   0.592   4.873
29555SOL     OW90671   7.701   1.541   5.448
29555SOL    HW190672   7.682   1.603   5.519
29555SOL    HW290673   7.703   1.455   5.494
29556SOL     OW90674   8.141   0.462   4.994
29556SOL    HW190675   8.084   0.386   4.971
29556SOL    HW290676   8.133   0.518   4.915
29557SOL     OW90677   8.371   1.699   5.202
29557SOL    HW190678   8.360   1.670   5.111
29557SOL    HW290679   8.367   1.796   5.195
29558SOL     OW90680   7.905   0.486   3.928
29558SOL    HW190681   7.945   0.547   3.866
29558SOL    HW290682   7.812   0.516   3.929
29559SOL     OW90683   7.558   1.133   5.199
29559SOL    HW190684   7.572   1.076   5.278
29559SOL    HW290685   7.582   1.072   5.126
29560SOL     OW90686   8.757   1.052   4.943
29560SOL    HW190687   8.778   0.990   4.870
29560SOL    HW290688   8.692   1.111   4.901
29561SOL     OW90689   8.758   0.847   4.029
29561SOL    HW190690   8.675   0.807   4.059
29561SOL    HW290691   8.741   0.857   3.934
29562SOL     OW90692   9.200   1.747   4.847
29562SOL    HW190693   9.280   1.767   4.795
29562SOL    HW290694   9.193   1.650   4.835
29563SOL     OW90695   8.690   1.721   4.825
29563SOL    HW190696   8.782   1.747   4.808
29563SOL    HW290697   8.701   1.627   4.849
29564SOL     OW90698   7.550   1.244   4.759
29564SOL    HW190699   7.524   1.268   4.850
29564SOL    HW290700   7.466   1.215   4.722
29565SOL     OW90701   8.139   1.637   5.466
29565SOL    HW190702   8.093   1.719   5.444
29565SOL    HW290703   8.231   1.656   5.441
29566SOL     OW90704   9.138   0.110   4.222
29566SOL    HW190705   9.211   0.120   4.159
29566SOL    HW290706   9.175   0.054   4.291
29567SOL     OW90707   8.807   1.575   4.205
29567SOL    HW190708   8.868   1.595   4.132
29567SOL    HW290709   8.767   1.662   4.224
29568SOL     OW90710   7.605   1.801   5.554
29568SOL    HW190711   7.561   1.729   5.603
29568SOL    HW290712   7.650   1.848   5.626
29569SOL     OW90713   8.720   0.915   4.362
29569SOL    HW190714   8.787   0.865   4.414
29569SOL    HW290715   8.733   0.877   4.274
29570SOL     OW90716   8.244   1.259   5.137
29570SOL    HW190717   8.221   1.311   5.217
29570SOL    HW290718   8.164   1.272   5.084
29571SOL     OW90719   8.123   1.618   3.875
29571SOL    HW190720   8.127   1.631   3.778
29571SOL    HW290721   8.060   1.542   3.878
29572SOL     OW90722   9.074   1.721   5.119
29572SOL    HW190723   9.123   1.737   5.036
29572SOL    HW290724   9.057   1.812   5.151
29573SOL     OW90725   9.317   0.122   4.670
29573SOL    HW190726   9.325   0.038   4.622
29573SOL    HW290727   9.234   0.158   4.634
29574SOL     OW90728   7.695   0.304   4.427
29574SOL    HW190729   7.607   0.342   4.404
29574SOL    HW290730   7.693   0.308   4.524
29575SOL     OW90731   8.638   1.623   3.748
29575SOL    HW190732   8.645   1.527   3.757
29575SOL    HW290733   8.584   1.633   3.668
29576SOL     OW90734   8.267   0.996   5.097
29576SOL    HW190735   8.288   1.000   5.003
29576SOL    HW290736   8.263   1.092   5.120
29577SOL     OW90737   8.368   0.903   4.006
29577SOL    HW190738   8.443   0.936   3.950
29577SOL    HW290739   8.405   0.823   4.045
29578SOL     OW90740   8.986   1.664   3.766
29578SOL    HW190741   8.893   1.645   3.749
29578SOL    HW290742   9.023   1.656   3.675
29579SOL     OW90743   7.791   1.282   5.209
29579SOL    HW190744   7.782   1.353   5.143
29579SOL    HW290745   7.707   1.233   5.199
29580SOL     OW90746   9.058   1.303   4.993
29580SOL    HW190747   9.095   1.276   5.078
29580SOL    HW290748   9.001   1.377   5.022
29581SOL     OW90749   8.511   1.134   4.436
29581SOL    HW190750   8.437   1.092   4.483
29581SOL    HW290751   8.562   1.058   4.407
29582SOL     OW90752   8.482   0.230   4.704
29582SOL    HW190753   8.476   0.178   4.621
29582SOL    HW290754   8.468   0.160   4.769
29583SOL     OW90755   8.050   1.473   4.213
29583SOL    HW190756   8.086   1.445   4.127
29583SOL    HW290757   7.978   1.530   4.188
29584SOL     OW90758   9.152   0.384   5.101
29584SOL    HW190759   9.213   0.460   5.099
29584SOL    HW290760   9.198   0.320   5.044
29585SOL     OW90761   7.707   1.378   3.995
29585SOL    HW190762   7.610   1.368   3.983
29585SOL    HW290763   7.712   1.397   4.091
29586SOL     OW90764   7.590   0.998   5.421
29586SOL    HW190765   7.517   0.990   5.487
29586SOL    HW290766   7.669   0.965   5.470
29587SOL     OW90767   8.119   0.227   5.200
29587SOL    HW190768   8.196   0.175   5.170
29587SOL    HW290769   8.148   0.255   5.289
29588SOL     OW90770   7.519   0.350   3.752
29588SOL    HW190771   7.425   0.370   3.740
29588SOL    HW290772   7.560   0.418   3.695
29589SOL     OW90773   8.893   0.850   5.110
29589SOL    HW190774   8.857   0.916   5.049
29589SOL    HW290775   8.988   0.870   5.110
29590SOL     OW90776   7.481   0.166   4.035
29590SOL    HW190777   7.478   0.236   3.969
29590SOL    HW290778   7.572   0.136   4.032
29591SOL     OW90779   8.644   1.345   3.836
29591SOL    HW190780   8.548   1.327   3.829
29591SOL    HW290781   8.656   1.352   3.932
29592SOL     OW90782   8.072   0.793   5.150
29592SOL    HW190783   8.124   0.875   5.156
29592SOL    HW290784   8.142   0.727   5.168
29593SOL     OW90785   8.968   1.747   4.675
29593SOL    HW190786   8.991   1.817   4.613
29593SOL    HW290787   9.042   1.749   4.737
29594SOL     OW90788   8.165   0.570   5.425
29594SOL    HW190789   8.219   0.629   5.480
29594SOL    HW290790   8.174   0.484   5.467
29595SOL     OW90791   8.912   1.180   5.347
29595SOL    HW190792   8.903   1.187   5.444
29595SOL    HW290793   9.006   1.201   5.333
29596SOL     OW90794   7.820   1.728   5.284
29596SOL    HW190795   7.738   1.780   5.277
29596SOL    HW290796   7.786   1.645   5.323
29597SOL     OW90797   9.132   0.896   4.954
29597SOL    HW190798   9.106   0.810   4.918
29597SOL    HW290799   9.096   0.959   4.889
29598SOL     OW90800   8.680   0.319   4.184
29598SOL    HW190801   8.728   0.234   4.192
29598SOL    HW290802   8.707   0.365   4.267
29599SOL     OW90803   8.043   0.757   4.380
29599SOL    HW190804   8.060   0.852   4.388
29599SOL    HW290805   7.958   0.754   4.333
29600SOL     OW90806   9.217   0.376   5.366
29600SOL    HW190807   9.189   0.383   5.273
29600SOL    HW290808   9.149   0.316   5.401
29601SOL     OW90809   9.165   0.931   5.218
29601SOL    HW190810   9.171   1.028   5.219
29601SOL    HW290811   9.186   0.911   5.125
29602SOL     OW90812   8.323   1.368   3.750
29602SOL    HW190813   8.283   1.390   3.835
29602SOL    HW290814   8.337   1.454   3.707
29603SOL     OW90815   8.084   1.802   4.644
29603SOL    HW190816   8.064   1.896   4.628
29603SOL    HW290817   8.179   1.802   4.658
29604SOL     OW90818   8.325   0.972   4.564
29604SOL    HW190819   8.358   0.889   4.600
29604SOL    HW290820   8.296   1.020   4.643
29605SOL     OW90821   8.561   1.000   3.845
29605SOL    HW190822   8.529   1.053   3.770
29605SOL    HW290823   8.622   0.938   3.799
29606SOL     OW90824   9.310   1.549   4.546
29606SOL    HW190825   9.214   1.551   4.554
29606SOL    HW290826   9.336   1.490   4.617
29607SOL     OW90827   7.683   1.312   5.594
29607SOL    HW190828   7.607   1.256   5.577
29607SOL    HW290829   7.677   1.326   5.690
29608SOL     OW90830   7.543   1.245   4.381
29608SOL    HW190831   7.526   1.192   4.460
29608SOL    HW290832   7.624   1.205   4.346
29609SOL     OW90833   8.126   1.397   5.336
29609SOL    HW190834   8.047   1.349   5.367
29609SOL    HW290835   8.118   1.482   5.383
29610SOL     OW90836   9.270   0.194   4.943
29610SOL    HW190837   9.246   0.101   4.951
29610SOL    HW290838   9.287   0.200   4.848
29611SOL     OW90839   7.860   0.423   4.231
29611SOL    HW190840   7.893   0.345   4.184
29611SOL    HW290841   7.819   0.384   4.310
29612SOL     OW90842   9.172   1.488   4.804
29612SOL    HW190843   9.087   1.462   4.767
29612SOL    HW290844   9.176   1.431   4.883
29613SOL     OW90845   7.771   0.549   5.018
29613SOL    HW190846   7.839   0.506   5.074
29613SOL    HW290847   7.794   0.520   4.928
29614SOL     OW90848   8.271   1.589   4.396
29614SOL    HW190849   8.255   1.639   4.315
29614SOL    HW290850   8.186   1.546   4.413
29615SOL     OW90851   8.882   0.238   4.819
29615SOL    HW190852   8.905   0.156   4.864
29615SOL    HW290853   8.832   0.288   4.888
29616SOL     OW90854   8.442   0.007   4.883
29616SOL    HW190855   8.399  11.021   4.876
29616SOL    HW290856   8.537  11.084   4.877
29617SOL     OW90857   8.238   1.345   4.035
29617SOL    HW190858   8.202   1.256   4.034
29617SOL    HW290859   8.303   1.340   4.107
29618SOL     OW90860   8.046   1.564   4.992
29618SOL    HW190861   8.050   1.648   5.043
29618SOL    HW290862   8.139   1.555   4.967
29619SOL     OW90863   8.767   0.074   3.901
29619SOL    HW190864   8.775  11.100   3.841
29619SOL    HW290865   8.676   0.061   3.936
29620SOL     OW90866   8.729   0.462   4.401
29620SOL    HW190867   8.675   0.542   4.399
29620SOL    HW290868   8.714   0.429   4.492
29621SOL     OW90869   9.073   0.207   4.596
29621SOL    HW190870   9.002   0.220   4.661
29621SOL    HW290871   9.072   0.292   4.549
29622SOL     OW90872   7.475   1.077   4.062
29622SOL    HW190873   7.560   1.090   4.019
29622SOL    HW290874   7.470   0.979   4.068
29623SOL     OW90875   8.336   1.645   4.057
29623SOL    HW190876   8.261   1.626   3.997
29623SOL    HW290877   8.308   1.726   4.104
29624SOL     OW90878   7.682   0.621   5.714
29624SOL    HW190879   7.589   0.616   5.741
29624SOL    HW290880   7.679   0.608   5.618
29625SOL     OW90881   7.661   0.298   6.581
29625SOL    HW190882   7.690   0.276   6.671
29625SOL    HW290883   7.598   0.226   6.563
29626SOL     OW90884   7.454   0.411   6.239
29626SOL    HW190885   7.370   0.432   6.283
29626SOL    HW290886   7.429   0.342   6.177
29627SOL     OW90887   8.020   1.292   6.790
29627SOL    HW190888   7.933   1.287   6.747
29627SOL    HW290889   8.027   1.387   6.811
29628SOL     OW90890   8.995   1.522   6.297
29628SOL    HW190891   8.958   1.496   6.384
29628SOL    HW290892   8.921   1.511   6.235
29629SOL     OW90893   8.578   0.689   6.289
29629SOL    HW190894   8.611   0.779   6.274
29629SOL    HW290895   8.551   0.694   6.382
29630SOL     OW90896   9.234   0.604   5.816
29630SOL    HW190897   9.208   0.595   5.722
29630SOL    HW290898   9.196   0.523   5.853
29631SOL     OW90899   8.179   1.163   6.617
29631SOL    HW190900   8.119   1.209   6.680
29631SOL    HW290901   8.223   1.238   6.574
29632SOL     OW90902   8.332   0.767   7.391
29632SOL    HW190903   8.310   0.828   7.463
29632SOL    HW290904   8.359   0.827   7.319
29633SOL     OW90905   8.137   1.030   6.244
29633SOL    HW190906   8.204   1.007   6.310
29633SOL    HW290907   8.067   1.073   6.298
29634SOL     OW90908   8.157   1.161   7.387
29634SOL    HW190909   8.200   1.243   7.419
29634SOL    HW290910   8.072   1.194   7.354
29635SOL     OW90911   7.767   1.424   6.657
29635SOL    HW190912   7.697   1.381   6.605
29635SOL    HW290913   7.814   1.481   6.592
29636SOL     OW90914   8.919   1.497   6.954
29636SOL    HW190915   8.978   1.574   6.968
29636SOL    HW290916   8.851   1.511   7.022
29637SOL     OW90917   7.883   0.399   7.105
29637SOL    HW190918   7.957   0.342   7.077
29637SOL    HW290919   7.804   0.349   7.082
29638SOL     OW90920   9.058   0.461   6.322
29638SOL    HW190921   9.003   0.491   6.248
29638SOL    HW290922   9.040   0.528   6.389
29639SOL     OW90923   7.666   1.715   6.062
29639SOL    HW190924   7.698   1.793   6.113
29639SOL    HW290925   7.729   1.711   5.989
29640SOL     OW90926   8.574   1.349   7.242
29640SOL    HW190927   8.625   1.351   7.324
29640SOL    HW290928   8.530   1.262   7.252
29641SOL     OW90929   7.701   1.437   6.119
29641SOL    HW190930   7.694   1.533   6.125
29641SOL    HW290931   7.633   1.407   6.181
29642SOL     OW90932   7.718   1.081   6.480
29642SOL    HW190933   7.721   1.008   6.543
29642SOL    HW290934   7.666   1.148   6.528
29643SOL     OW90935   8.039   1.811   6.982
29643SOL    HW190936   7.977   1.777   7.049
29643SOL    HW290937   8.069   1.895   7.023
29644SOL     OW90938   8.029   0.988   5.699
29644SOL    HW190939   8.077   1.041   5.632
29644SOL    HW290940   8.070   1.023   5.781
29645SOL     OW90941   9.054   0.103   7.069
29645SOL    HW190942   9.050   0.151   6.986
29645SOL    HW290943   9.021   0.169   7.132
29646SOL     OW90944   7.567   0.673   6.159
29646SOL    HW190945   7.547   0.583   6.189
29646SOL    HW290946   7.561   0.723   6.243
29647SOL     OW90947   9.294   1.741   5.937
29647SOL    HW190948   9.370   1.723   5.996
29647SOL    HW290949   9.312   1.833   5.911
29648SOL     OW90950   7.513   1.597   5.705
29648SOL    HW190951   7.495   1.503   5.720
29648SOL    HW290952   7.477   1.637   5.786
29649SOL     OW90953   9.133   0.923   6.218
29649SOL    HW190954   9.207   0.878   6.174
29649SOL    HW290955   9.102   0.982   6.147
29650SOL     OW90956   9.093   1.123   6.027
29650SOL    HW190957   9.184   1.120   5.993
29650SOL    HW290958   9.101   1.189   6.099
29651SOL     OW90959   7.578   0.744   7.173
29651SOL    HW190960   7.671   0.769   7.164
29651SOL    HW290961   7.541   0.828   7.207
29652SOL     OW90962   8.054   1.407   6.351
29652SOL    HW190963   8.018   1.317   6.364
29652SOL    HW290964   8.042   1.417   6.255
29653SOL     OW90965   8.730   1.229   7.006
29653SOL    HW190966   8.767   1.158   6.952
29653SOL    HW290967   8.779   1.220   7.089
29654SOL     OW90968   8.271   0.007   6.111
29654SOL    HW190969   8.304   0.097   6.090
29654SOL    HW290970   8.176   0.014   6.091
29655SOL     OW90971   7.619   0.965   6.871
29655SOL    HW190972   7.709   0.934   6.854
29655SOL    HW290973   7.567   0.910   6.810
29656SOL     OW90974   8.981   0.965   5.766
29656SOL    HW190975   8.902   0.919   5.800
29656SOL    HW290976   9.022   0.995   5.849
29657SOL     OW90977   8.603   1.810   7.182
29657SOL    HW190978   8.627   1.878   7.117
29657SOL    HW290979   8.636   1.729   7.142
29658SOL     OW90980   7.767   0.254   7.404
29658SOL    HW190981   7.818   0.330   7.434
29658SOL    HW290982   7.677   0.275   7.435
29659SOL     OW90983   8.918   1.429   6.550
29659SOL    HW190984   8.854   1.447   6.621
29659SOL    HW290985   8.890   1.340   6.520
29660SOL     OW90986   9.105   1.740   6.194
29660SOL    HW190987   9.091   1.707   6.104
29660SOL    HW290988   9.075   1.662   6.245
29661SOL     OW90989   8.040   0.711   5.849
29661SOL    HW190990   8.042   0.797   5.805
29661SOL    HW290991   7.971   0.723   5.917
29662SOL     OW90992   8.717   0.380   6.530
29662SOL    HW190993   8.632   0.333   6.535
29662SOL    HW290994   8.776   0.320   6.579
29663SOL     OW90995   9.022   1.645   5.896
29663SOL    HW190996   9.116   1.670   5.903
29663SOL    HW290997   9.014   1.637   5.799
29664SOL     OW90998   8.261   0.620   7.029
29664SOL    HW190999   8.243   0.597   7.123
29664SOL    HW291000   8.216   0.547   6.983
29665SOL     OW91001   8.847   0.492   7.254
29665SOL    HW191002   8.846   0.539   7.339
29665SOL    HW291003   8.909   0.420   7.269
29666SOL     OW91004   8.421   0.907   7.175
29666SOL    HW191005   8.479   0.837   7.138
29666SOL    HW291006   8.365   0.927   7.097
29667SOL     OW91007   8.437   0.385   6.808
29667SOL    HW191008   8.354   0.357   6.849
29667SOL    HW291009   8.439   0.332   6.727
29668SOL     OW91010   8.499   0.698   6.012
29668SOL    HW191011   8.517   0.700   6.107
29668SOL    HW291012   8.413   0.651   6.009
29669SOL     OW91013   7.550   0.828   6.384
29669SOL    HW191014   7.626   0.819   6.444
29669SOL    HW291015   7.516   0.915   6.409
29670SOL     OW91016   7.561   1.825   7.155
29670SOL    HW191017   7.556   1.796   7.247
29670SOL    HW291018   7.468   1.829   7.128
29671SOL     OW91019   8.333   0.349   5.805
29671SOL    HW191020   8.378   0.403   5.739
29671SOL    HW291021   8.303   0.274   5.753
29672SOL     OW91022   9.180   0.575   7.421
29672SOL    HW191023   9.140   0.655   7.380
29672SOL    HW291024   9.194   0.520   7.342
29673SOL     OW91025   8.817   1.152   6.142
29673SOL    HW191026   8.897   1.140   6.089
29673SOL    HW291027   8.768   1.217   6.088
29674SOL     OW91028   7.987   0.200   6.461
29674SOL    HW191029   8.015   0.208   6.554
29674SOL    HW291030   7.999   0.289   6.426
29675SOL     OW91031   8.433   1.443   6.075
29675SOL    HW191032   8.399   1.510   6.013
29675SOL    HW291033   8.442   1.492   6.158
29676SOL     OW91034   7.794   1.813   6.451
29676SOL    HW191035   7.835   1.724   6.457
29676SOL    HW291036   7.871   1.871   6.462
29677SOL     OW91037   9.263   1.039   6.437
29677SOL    HW191038   9.203   1.016   6.364
29677SOL    HW291039   9.203   1.036   6.513
29678SOL     OW91040   8.668   1.559   7.075
29678SOL    HW191041   8.650   1.496   7.147
29678SOL    HW291042   8.620   1.519   7.002
29679SOL     OW91043   7.763   0.954   5.835
29679SOL    HW191044   7.839   0.968   5.777
29679SOL    HW291045   7.731   0.867   5.806
29680SOL     OW91046   8.931   0.741   6.300
29680SOL    HW191047   8.915   0.703   6.388
29680SOL    HW291048   9.002   0.805   6.317
29681SOL     OW91049   7.913   1.273   7.314
29681SOL    HW191050   7.875   1.278   7.223
29681SOL    HW291051   7.831   1.280   7.366
29682SOL     OW91052   8.540   1.765   5.826
29682SOL    HW191053   8.465   1.716   5.866
29682SOL    HW291054   8.554   1.716   5.743
29683SOL     OW91055   7.626   0.305   7.091
29683SOL    HW191056   7.549   0.351   7.127
29683SOL    HW291057   7.632   0.226   7.148
29684SOL     OW91058   9.071   1.367   5.681
29684SOL    HW191059   9.030   1.450   5.653
29684SOL    HW291060   9.011   1.300   5.644
29685SOL     OW91061   7.904   1.735   5.904
29685SOL    HW191062   7.954   1.785   5.972
29685SOL    HW291063   7.975   1.703   5.846
29686SOL     OW91064   8.842   0.085   6.042
29686SOL    HW191065   8.846   0.072   5.946
29686SOL    HW291066   8.933   0.108   6.064
29687SOL     OW91067   7.688   1.786   6.800
29687SOL    HW191068   7.749   1.719   6.833
29687SOL    HW291069   7.669   1.758   6.710
29688SOL     OW91070   8.406   1.696   6.473
29688SOL    HW191071   8.489   1.648   6.478
29688SOL    HW291072   8.358   1.647   6.403
29689SOL     OW91073   7.827   0.674   6.046
29689SOL    HW191074   7.850   0.581   6.065
29689SOL    HW291075   7.736   0.678   6.080
29690SOL     OW91076   8.981   0.235   7.295
29690SOL    HW191077   8.983   0.245   7.393
29690SOL    HW291078   8.922   0.159   7.290
29691SOL     OW91079   8.092   0.137   5.672
29691SOL    HW191080   8.127   0.056   5.713
29691SOL    HW291081   8.036   0.102   5.600
29692SOL     OW91082   8.222   0.294   7.352
29692SOL    HW191083   8.300   0.235   7.341
29692SOL    HW291084   8.169   0.244   7.417
29693SOL     OW91085   8.326   1.546   6.783
29693SOL    HW191086   8.321   1.510   6.693
29693SOL    HW291087   8.387   1.485   6.828
29694SOL     OW91088   8.768   0.589   7.020
29694SOL    HW191089   8.811   0.551   7.101
29694SOL    HW291090   8.822   0.669   7.005
29695SOL     OW91091   8.273   1.410   6.525
29695SOL    HW191092   8.359   1.396   6.480
29695SOL    HW291093   8.211   1.416   6.451
29696SOL     OW91094   8.391   0.529   6.493
29696SOL    HW191095   8.361   0.510   6.401
29696SOL    HW291096   8.420   0.441   6.522
29697SOL     OW91097   7.983   0.030   6.090
29697SOL    HW191098   7.894   0.026   6.130
29697SOL    HW291099   7.973   0.104   6.027
29698SOL     OW91100   8.891   1.178   5.611
29698SOL    HW191101   8.917   1.103   5.668
29698SOL    HW291102   8.807   1.205   5.648
29699SOL     OW91103   7.748   0.047   5.800
29699SOL    HW191104   7.805   0.124   5.788
29699SOL    HW291105   7.810  11.079   5.825
29700SOL     OW91106   8.380   0.255   6.071
29700SOL    HW191107   8.363   0.293   5.983
29700SOL    HW291108   8.477   0.258   6.074
29701SOL     OW91109   8.539   0.712   7.044
29701SOL    HW191110   8.472   0.642   7.051
29701SOL    HW291111   8.622   0.661   7.040
29702SOL     OW91112   8.678   1.590   6.382
29702SOL    HW191113   8.684   1.645   6.302
29702SOL    HW291114   8.758   1.616   6.430
29703SOL     OW91115   7.919   1.167   6.331
29703SOL    HW191116   7.843   1.133   6.383
29703SOL    HW291117   7.888   1.150   6.240
29704SOL     OW91118   8.701   1.808   6.184
29704SOL    HW191119   8.755   1.880   6.144
29704SOL    HW291120   8.648   1.857   6.249
29705SOL     OW91121   8.504   0.549   5.586
29705SOL    HW191122   8.453   0.630   5.570
29705SOL    HW291123   8.571   0.578   5.649
29706SOL     OW91124   7.508   0.573   6.971
29706SOL    HW191125   7.601   0.547   6.961
29706SOL    HW291126   7.514   0.639   7.043
29707SOL     OW91127   7.998   0.225   6.757
29707SOL    HW191128   8.051   0.164   6.810
29707SOL    HW291129   7.909   0.212   6.794
29708SOL     OW91130   8.321   0.456   6.244
29708SOL    HW191131   8.282   0.511   6.174
29708SOL    HW291132   8.332   0.371   6.199
29709SOL     OW91133   8.430   0.024   6.357
29709SOL    HW191134   8.373   0.031   6.279
29709SOL    HW291135   8.391  11.052   6.405
29710SOL     OW91136   8.872   1.179   6.467
29710SOL    HW191137   8.827   1.097   6.492
29710SOL    HW291138   8.869   1.175   6.370
29711SOL     OW91139   8.930   0.593   6.549
29711SOL    HW191140   8.862   0.525   6.561
29711SOL    HW291141   8.981   0.588   6.632
29712SOL     OW91142   9.279   0.808   5.976
29712SOL    HW191143   9.341   0.765   6.038
29712SOL    HW291144   9.271   0.738   5.907
29713SOL     OW91145   7.945   1.419   5.724
29713SOL    HW191146   7.860   1.409   5.769
29713SOL    HW291147   7.931   1.370   5.642
29714SOL     OW91148   9.125   1.285   6.241
29714SOL    HW191149   9.222   1.287   6.246
29714SOL    HW291150   9.098   1.374   6.266
29715SOL     OW91151   8.857   0.591   5.647
29715SOL    HW191152   8.809   0.564   5.728
29715SOL    HW291153   8.944   0.553   5.661
29716SOL     OW91154   7.961   0.245   5.889
29716SOL    HW191155   8.017   0.217   5.815
29716SOL    HW291156   7.934   0.335   5.859
29717SOL     OW91157   9.183   1.232   7.167
29717SOL    HW191158   9.273   1.197   7.178
29717SOL    HW291159   9.201   1.327   7.178
29718SOL     OW91160   8.505   1.373   6.926
29718SOL    HW191161   8.426   1.335   6.969
29718SOL    HW291162   8.576   1.321   6.967
29719SOL     OW91163   9.055   1.620   7.223
29719SOL    HW191164   9.069   1.644   7.130
29719SOL    HW291165   9.124   1.554   7.238
29720SOL     OW91166   8.570   1.233   6.687
29720SOL    HW191167   8.505   1.264   6.751
29720SOL    HW291168   8.541   1.275   6.604
29721SOL     OW91169   9.050   1.092   6.649
29721SOL    HW191170   9.057   1.154   6.724
29721SOL    HW291171   8.997   1.145   6.586
29722SOL     OW91172   8.354   0.122   7.005
29722SOL    HW191173   8.371   0.081   6.917
29722SOL    HW291174   8.445   0.139   7.034
29723SOL     OW91175   8.447   1.125   7.326
29723SOL    HW191176   8.355   1.147   7.346
29723SOL    HW291177   8.438   1.049   7.265
29724SOL     OW91178   8.169   1.063   5.924
29724SOL    HW191179   8.148   1.035   6.015
29724SOL    HW291180   8.242   1.003   5.900
29725SOL     OW91181   7.857   0.779   6.849
29725SOL    HW191182   7.931   0.781   6.914
29725SOL    HW291183   7.818   0.691   6.863
29726SOL     OW91184   8.740   0.398   6.839
29726SOL    HW191185   8.743   0.467   6.909
29726SOL    HW291186   8.647   0.402   6.811
29727SOL     OW91187   7.524   1.569   6.926
29727SOL    HW191188   7.521   1.653   6.879
29727SOL    HW291189   7.619   1.546   6.923
29728SOL     OW91190   7.823   1.114   6.087
29728SOL    HW191191   7.847   1.177   6.019
29728SOL    HW291192   7.800   1.036   6.035
29729SOL     OW91193   7.983   0.542   6.415
29729SOL    HW191194   8.016   0.608   6.351
29729SOL    HW291195   8.049   0.548   6.487
29730SOL     OW91196   8.685   1.337   5.984
29730SOL    HW191197   8.723   1.419   6.018
29730SOL    HW291198   8.595   1.340   6.022
29731SOL     OW91199   8.743   1.464   6.754
29731SOL    HW191200   8.801   1.469   6.833
29731SOL    HW291201   8.690   1.385   6.773
29732SOL     OW91202   9.032   0.623   6.057
29732SOL    HW191203   8.983   0.677   6.120
29732SOL    HW291204   9.069   0.689   5.997
29733SOL     OW91205   7.789   1.498   6.904
29733SOL    HW191206   7.780   1.464   6.812
29733SOL    HW291207   7.880   1.532   6.899
29734SOL     OW91208   7.887   0.721   7.202
29734SOL    HW191209   7.945   0.772   7.143
29734SOL    HW291210   7.922   0.631   7.191
29735SOL     OW91211   9.077   0.770   7.274
29735SOL    HW191212   8.988   0.808   7.276
29735SOL    HW291213   9.115   0.815   7.196
29736SOL     OW91214   8.449   0.141   7.345
29736SOL    HW191215   8.507   0.217   7.332
29736SOL    HW291216   8.504   0.068   7.310
29737SOL     OW91217   7.944   0.056   7.334
29737SOL    HW191218   7.884  11.101   7.284
29737SOL    HW291219   7.884   0.129   7.360
29738SOL     OW91220   8.009   0.901   6.627
29738SOL    HW191221   8.060   0.984   6.632
29738SOL    HW291222   7.974   0.889   6.716
29739SOL     OW91223   8.801   0.879   6.603
29739SOL    HW191224   8.719   0.835   6.575
29739SOL    HW291225   8.856   0.803   6.626
29740SOL     OW91226   8.685   0.519   5.849
29740SOL    HW191227   8.694   0.443   5.909
29740SOL    HW291228   8.620   0.572   5.897
29741SOL     OW91229   7.746   0.198   6.858
29741SOL    HW191230   7.700   0.247   6.929
29741SOL    HW291231   7.692   0.119   6.850
29742SOL     OW91232   7.494   1.297   6.864
29742SOL    HW191233   7.521   1.244   6.941
29742SOL    HW291234   7.497   1.389   6.896
29743SOL     OW91235   8.154   0.604   6.621
29743SOL    HW191236   8.244   0.588   6.586
29743SOL    HW291237   8.145   0.700   6.617
29744SOL     OW91238   9.220   0.963   7.432
29744SOL    HW191239   9.170   0.902   7.375
29744SOL    HW291240   9.158   0.977   7.505
29745SOL     OW91241   7.730   0.029   6.199
29745SOL    HW191242   7.717   0.125   6.206
29745SOL    HW291243   7.746   0.010   6.294
29746SOL     OW91244   9.034   0.392   5.921
29746SOL    HW191245   9.070   0.328   5.983
29746SOL    HW291246   9.028   0.473   5.976
29747SOL     OW91247   8.529   0.749   6.556
29747SOL    HW191248   8.500   0.764   6.648
29747SOL    HW291249   8.485   0.663   6.538
29748SOL     OW91250   8.417   1.565   7.279
29748SOL    HW191251   8.411   1.618   7.197
29748SOL    HW291252   8.457   1.482   7.247
29749SOL     OW91253   9.293   1.487   7.182
29749SOL    HW191254   9.322   1.516   7.094
29749SOL    HW291255   9.369   1.511   7.238
29750SOL     OW91256   7.805   0.903   7.376
29750SOL    HW191257   7.885   0.926   7.427
29750SOL    HW291258   7.834   0.826   7.323
29751SOL     OW91259   8.953   0.253   5.697
29751SOL    HW191260   8.878   0.201   5.732
29751SOL    HW291261   8.983   0.305   5.774
29752SOL     OW91262   8.735   0.830   5.607
29752SOL    HW191263   8.790   0.749   5.618
29752SOL    HW291264   8.760   0.857   5.516
29753SOL     OW91265   8.518   1.364   6.432
29753SOL    HW191266   8.532   1.288   6.372
29753SOL    HW291267   8.584   1.429   6.403
29754SOL     OW91268   7.739   0.823   6.586
29754SOL    HW191269   7.834   0.842   6.575
29754SOL    HW291270   7.742   0.728   6.610
29755SOL     OW91271   7.782   0.542   6.590
29755SOL    HW191272   7.744   0.454   6.571
29755SOL    HW291273   7.850   0.547   6.520
29756SOL     OW91274   8.604   0.381   7.269
29756SOL    HW191275   8.557   0.434   7.337
29756SOL    HW291276   8.691   0.425   7.266
29757SOL     OW91277   8.621   0.215   7.054
29757SOL    HW191278   8.621   0.282   7.125
29757SOL    HW291279   8.645   0.267   6.976
29758SOL     OW91280   7.446   1.329   5.787
29758SOL    HW191281   7.354   1.343   5.754
29758SOL    HW291282   7.442   1.235   5.814
29759SOL     OW91283   7.548   1.784   6.535
29759SOL    HW191284   7.521   1.712   6.475
29759SOL    HW291285   7.639   1.802   6.502
29760SOL     OW91286   7.924   1.579   6.512
29760SOL    HW191287   7.994   1.644   6.533
29760SOL    HW291288   7.973   1.515   6.457
29761SOL     OW91289   8.412   0.754   6.800
29761SOL    HW191290   8.478   0.743   6.870
29761SOL    HW291291   8.331   0.729   6.848
29762SOL     OW91292   7.464   0.518   6.684
29762SOL    HW191293   7.541   0.510   6.627
29762SOL    HW291294   7.505   0.535   6.770
29763SOL     OW91295   7.651   0.519   7.307
29763SOL    HW191296   7.712   0.478   7.244
29763SOL    HW291297   7.622   0.600   7.259
29764SOL     OW91298   8.843   0.912   7.239
29764SOL    HW191299   8.865   1.007   7.240
29764SOL    HW291300   8.832   0.895   7.144
29765SOL     OW91301   8.258   0.581   5.978
29765SOL    HW191302   8.272   0.506   5.918
29765SOL    HW291303   8.184   0.627   5.935
29766SOL     OW91304   9.085   0.616   6.775
29766SOL    HW191305   9.063   0.550   6.843
29766SOL    HW291306   9.175   0.589   6.748
29767SOL     OW91307   7.693   1.542   7.305
29767SOL    HW191308   7.699   1.609   7.374
29767SOL    HW291309   7.706   1.459   7.355
29768SOL     OW91310   8.112   0.463   6.854
29768SOL    HW191311   8.073   0.381   6.820
29768SOL    HW291312   8.123   0.517   6.773
29769SOL     OW91313   8.367   1.697   7.042
29769SOL    HW191314   8.366   1.679   6.947
29769SOL    HW291315   8.377   1.793   7.048
29770SOL     OW91316   7.895   0.476   5.778
29770SOL    HW191317   7.958   0.549   5.787
29770SOL    HW291318   7.810   0.526   5.769
29771SOL     OW91319   7.567   1.137   7.063
29771SOL    HW191320   7.577   1.080   7.143
29771SOL    HW291321   7.580   1.070   6.992
29772SOL     OW91322   8.766   1.040   6.821
29772SOL    HW191323   8.786   0.991   6.739
29772SOL    HW291324   8.694   1.098   6.790
29773SOL     OW91325   8.757   0.854   5.881
29773SOL    HW191326   8.676   0.827   5.927
29773SOL    HW291327   8.730   0.853   5.788
29774SOL     OW91328   9.197   1.747   6.709
29774SOL    HW191329   9.274   1.764   6.653
29774SOL    HW291330   9.186   1.650   6.697
29775SOL     OW91331   8.695   1.724   6.703
29775SOL    HW191332   8.783   1.748   6.673
29775SOL    HW291333   8.702   1.627   6.714
29776SOL     OW91334   7.555   1.245   6.610
29776SOL    HW191335   7.525   1.260   6.702
29776SOL    HW291336   7.477   1.204   6.570
29777SOL     OW91337   8.147   1.635   7.323
29777SOL    HW191338   8.114   1.723   7.304
29777SOL    HW291339   8.242   1.641   7.301
29778SOL     OW91340   9.136   0.113   6.082
29778SOL    HW191341   9.213   0.126   6.024
29778SOL    HW291342   9.170   0.053   6.150
29779SOL     OW91343   8.810   1.579   6.073
29779SOL    HW191344   8.871   1.595   5.999
29779SOL    HW291345   8.772   1.667   6.090
29780SOL     OW91346   7.567   1.786   7.440
29780SOL    HW191347   7.498   1.851   7.453
29780SOL    HW291348   7.643   1.827   7.486
29781SOL     OW91349   8.711   0.920   6.254
29781SOL    HW191350   8.788   0.862   6.270
29781SOL    HW291351   8.751   0.994   6.205
29782SOL     OW91352   8.252   1.257   6.999
29782SOL    HW191353   8.231   1.310   7.078
29782SOL    HW291354   8.171   1.271   6.947
29783SOL     OW91355   8.113   1.623   5.740
29783SOL    HW191356   8.126   1.630   5.643
29783SOL    HW291357   8.057   1.541   5.743
29784SOL     OW91358   9.081   1.715   6.967
29784SOL    HW191359   9.122   1.732   6.881
29784SOL    HW291360   9.065   1.806   7.000
29785SOL     OW91361   9.295   0.119   6.542
29785SOL    HW191362   9.323   0.056   6.474
29785SOL    HW291363   9.214   0.158   6.503
29786SOL     OW91364   7.692   0.292   6.284
29786SOL    HW191365   7.607   0.340   6.272
29786SOL    HW291366   7.706   0.299   6.379
29787SOL     OW91367   8.633   1.625   5.609
29787SOL    HW191368   8.645   1.530   5.628
29787SOL    HW291369   8.574   1.624   5.531
29788SOL     OW91370   8.273   0.992   6.965
29788SOL    HW191371   8.305   0.990   6.874
29788SOL    HW291372   8.268   1.088   6.984
29789SOL     OW91373   8.358   0.896   5.846
29789SOL    HW191374   8.435   0.934   5.799
29789SOL    HW291375   8.398   0.827   5.901
29790SOL     OW91376   9.000   1.629   5.622
29790SOL    HW191377   8.904   1.638   5.614
29790SOL    HW291378   9.028   1.630   5.527
29791SOL     OW91379   7.801   1.279   7.077
29791SOL    HW191380   7.794   1.350   7.011
29791SOL    HW291381   7.719   1.229   7.065
29792SOL     OW91382   9.052   1.298   6.843
29792SOL    HW191383   9.095   1.274   6.926
29792SOL    HW291384   8.991   1.368   6.874
29793SOL     OW91385   8.502   1.123   6.300
29793SOL    HW191386   8.428   1.072   6.339
29793SOL    HW291387   8.563   1.053   6.273
29794SOL     OW91388   8.484   0.249   6.553
29794SOL    HW191389   8.478   0.195   6.472
29794SOL    HW291390   8.466   0.178   6.619
29795SOL     OW91391   8.062   1.474   6.084
29795SOL    HW191392   8.113   1.433   6.013
29795SOL    HW291393   7.992   1.521   6.037
29796SOL     OW91394   9.153   0.384   6.970
29796SOL    HW191395   9.215   0.459   6.965
29796SOL    HW291396   9.197   0.320   6.909
29797SOL     OW91397   7.697   1.379   5.860
29797SOL    HW191398   7.601   1.365   5.854
29797SOL    HW291399   7.707   1.403   5.955
29798SOL     OW91400   7.574   0.997   7.286
29798SOL    HW191401   7.502   0.981   7.351
29798SOL    HW291402   7.654   0.967   7.334
29799SOL     OW91403   8.110   0.224   7.073
29799SOL    HW191404   8.191   0.177   7.043
29799SOL    HW291405   8.139   0.259   7.158
29800SOL     OW91406   7.519   0.354   5.623
29800SOL    HW191407   7.428   0.367   5.596
29800SOL    HW291408   7.564   0.420   5.566
29801SOL     OW91409   8.893   0.845   6.976
29801SOL    HW191410   8.857   0.912   6.915
29801SOL    HW291411   8.988   0.864   6.973
29802SOL     OW91412   7.485   0.169   5.901
29802SOL    HW191413   7.483   0.235   5.831
29802SOL    HW291414   7.572   0.128   5.888
29803SOL     OW91415   8.651   1.358   5.701
29803SOL    HW191416   8.561   1.322   5.704
29803SOL    HW291417   8.676   1.356   5.796
29804SOL     OW91418   8.067   0.803   7.010
29804SOL    HW191419   8.120   0.884   7.008
29804SOL    HW291420   8.138   0.736   7.019
29805SOL     OW91421   8.958   1.784   6.555
29805SOL    HW191422   8.991   1.819   6.471
29805SOL    HW291423   9.039   1.772   6.606
29806SOL     OW91424   8.191   0.563   7.276
29806SOL    HW191425   8.235   0.623   7.339
29806SOL    HW291426   8.195   0.476   7.320
29807SOL     OW91427   8.908   1.185   7.212
29807SOL    HW191428   8.899   1.190   7.309
29807SOL    HW291429   9.003   1.205   7.201
29808SOL     OW91430   7.829   1.734   7.150
29808SOL    HW191431   7.742   1.774   7.136
29808SOL    HW291432   7.806   1.643   7.173
29809SOL     OW91433   9.138   0.897   6.815
29809SOL    HW191434   9.112   0.810   6.779
29809SOL    HW291435   9.103   0.959   6.748
29810SOL     OW91436   8.674   0.306   6.042
29810SOL    HW191437   8.724   0.222   6.049
29810SOL    HW291438   8.705   0.354   6.122
29811SOL     OW91439   8.040   0.756   6.224
29811SOL    HW191440   8.068   0.848   6.221
29811SOL    HW291441   7.965   0.752   6.162
29812SOL     OW91442   9.210   0.377   7.229
29812SOL    HW191443   9.184   0.380   7.135
29812SOL    HW291444   9.143   0.316   7.263
29813SOL     OW91445   9.173   0.932   7.082
29813SOL    HW191446   9.191   1.026   7.093
29813SOL    HW291447   9.188   0.919   6.986
29814SOL     OW91448   8.302   1.365   5.618
29814SOL    HW191449   8.277   1.380   5.711
29814SOL    HW291450   8.328   1.452   5.585
29815SOL     OW91451   8.088   1.801   6.499
29815SOL    HW191452   8.089   1.898   6.490
29815SOL    HW291453   8.181   1.778   6.510
29816SOL     OW91454   8.329   0.953   6.431
29816SOL    HW191455   8.383   0.881   6.466
29816SOL    HW291456   8.301   1.001   6.510
29817SOL     OW91457   8.555   1.000   5.687
29817SOL    HW191458   8.527   1.053   5.610
29817SOL    HW291459   8.616   0.935   5.646
29818SOL     OW91460   9.313   1.556   6.415
29818SOL    HW191461   9.218   1.558   6.401
29818SOL    HW291462   9.324   1.487   6.481
29819SOL     OW91463   7.681   1.315   7.449
29819SOL    HW191464   7.623   1.240   7.429
29819SOL    HW291465   7.682   1.315   7.546
29820SOL     OW91466   7.529   1.259   6.244
29820SOL    HW191467   7.528   1.202   6.322
29820SOL    HW291468   7.604   1.223   6.194
29821SOL     OW91469   8.120   1.399   7.190
29821SOL    HW191470   8.048   1.350   7.234
29821SOL    HW291471   8.117   1.485   7.238
29822SOL     OW91472   9.282   0.204   6.809
29822SOL    HW191473   9.260   0.111   6.830
29822SOL    HW291474   9.286   0.201   6.712
29823SOL     OW91475   7.863   0.412   6.104
29823SOL    HW191476   7.899   0.336   6.056
29823SOL    HW291477   7.824   0.371   6.183
29824SOL     OW91478   9.172   1.488   6.669
29824SOL    HW191479   9.086   1.457   6.634
29824SOL    HW291480   9.181   1.433   6.747
29825SOL     OW91481   7.771   0.519   6.871
29825SOL    HW191482   7.852   0.490   6.917
29825SOL    HW291483   7.795   0.514   6.777
29826SOL     OW91484   8.271   1.591   6.265
29826SOL    HW191485   8.264   1.626   6.175
29826SOL    HW291486   8.189   1.540   6.273
29827SOL     OW91487   8.877   0.226   6.678
29827SOL    HW191488   8.839   0.139   6.703
29827SOL    HW291489   8.843   0.283   6.750
29828SOL     OW91490   8.241   1.340   5.899
29828SOL    HW191491   8.216   1.246   5.898
29828SOL    HW291492   8.306   1.344   5.971
29829SOL     OW91493   8.047   1.567   6.853
29829SOL    HW191494   8.048   1.656   6.892
29829SOL    HW291495   8.142   1.554   6.839
29830SOL     OW91496   8.767   0.065   5.763
29830SOL    HW191497   8.773  11.090   5.703
29830SOL    HW291498   8.679   0.051   5.804
29831SOL     OW91499   8.729   0.453   6.261
29831SOL    HW191500   8.675   0.533   6.252
29831SOL    HW291501   8.718   0.430   6.355
29832SOL     OW91502   9.063   0.219   6.453
29832SOL    HW191503   8.996   0.229   6.523
29832SOL    HW291504   9.057   0.305   6.408
29833SOL     OW91505   7.500   1.067   5.890
29833SOL    HW191506   7.592   1.056   5.862
29833SOL    HW291507   7.474   0.975   5.910
29834SOL     OW91508   8.320   1.645   5.915
29834SOL    HW191509   8.243   1.631   5.857
29834SOL    HW291510   8.300   1.728   5.963
29835SOL     OW91511   7.689   0.631   7.584
29835SOL    HW191512   7.597   0.612   7.608
29835SOL    HW291513   7.690   0.616   7.488
29836SOL     OW91514   7.657   0.296   8.440
29836SOL    HW191515   7.682   0.282   8.532
29836SOL    HW291516   7.592   0.225   8.425
29837SOL     OW91517   7.453   0.397   8.080
29837SOL    HW191518   7.377   0.432   8.132
29837SOL    HW291519   7.409   0.332   8.024
29838SOL     OW91520   8.020   1.295   8.653
29838SOL    HW191521   7.932   1.292   8.613
29838SOL    HW291522   8.027   1.388   8.679
29839SOL     OW91523   8.978   1.533   8.165
29839SOL    HW191524   8.941   1.500   8.249
29839SOL    HW291525   8.908   1.520   8.099
29840SOL     OW91526   8.567   0.703   8.150
29840SOL    HW191527   8.613   0.787   8.134
29840SOL    HW291528   8.545   0.711   8.244
29841SOL     OW91529   9.237   0.591   7.680
29841SOL    HW191530   9.213   0.586   7.585
29841SOL    HW291531   9.180   0.522   7.717
29842SOL     OW91532   8.193   1.164   8.490
29842SOL    HW191533   8.130   1.211   8.548
29842SOL    HW291534   8.228   1.239   8.438
29843SOL     OW91535   8.328   0.767   9.254
29843SOL    HW191536   8.307   0.824   9.329
29843SOL    HW291537   8.357   0.832   9.186
29844SOL     OW91538   8.137   1.019   8.112
29844SOL    HW191539   8.214   1.002   8.170
29844SOL    HW291540   8.079   1.072   8.170
29845SOL     OW91541   8.164   1.161   9.250
29845SOL    HW191542   8.199   1.244   9.290
29845SOL    HW291543   8.077   1.190   9.218
29846SOL     OW91544   7.768   1.427   8.517
29846SOL    HW191545   7.702   1.377   8.466
29846SOL    HW291546   7.818   1.478   8.450
29847SOL     OW91547   8.918   1.501   8.827
29847SOL    HW191548   8.974   1.580   8.836
29847SOL    HW291549   8.846   1.519   8.890
29848SOL     OW91550   7.903   0.422   8.933
29848SOL    HW191551   7.959   0.342   8.929
29848SOL    HW291552   7.814   0.384   8.944
29849SOL     OW91553   9.068   0.471   8.210
29849SOL    HW191554   9.005   0.482   8.137
29849SOL    HW291555   9.071   0.564   8.239
29850SOL     OW91556   7.671   1.715   7.912
29850SOL    HW191557   7.694   1.789   7.973
29850SOL    HW291558   7.744   1.718   7.849
29851SOL     OW91559   8.573   1.351   9.123
29851SOL    HW191560   8.619   1.347   9.207
29851SOL    HW291561   8.529   1.264   9.123
29852SOL     OW91562   7.697   1.424   7.974
29852SOL    HW191563   7.696   1.520   7.989
29852SOL    HW291564   7.635   1.392   8.041
29853SOL     OW91565   7.723   1.095   8.354
29853SOL    HW191566   7.720   1.018   8.412
29853SOL    HW291567   7.662   1.156   8.399
29854SOL     OW91568   8.042   1.808   8.836
29854SOL    HW191569   7.993   1.769   8.911
29854SOL    HW291570   8.071   1.892   8.874
29855SOL     OW91571   8.018   0.994   7.557
29855SOL    HW191572   8.070   1.042   7.490
29855SOL    HW291573   8.063   1.021   7.639
29856SOL     OW91574   9.050   0.099   8.932
29856SOL    HW191575   9.074   0.145   8.851
29856SOL    HW291576   9.019   0.172   8.987
29857SOL     OW91577   7.580   0.667   8.022
29857SOL    HW191578   7.550   0.577   8.042
29857SOL    HW291579   7.562   0.715   8.105
29858SOL     OW91580   9.296   1.744   7.789
29858SOL    HW191581   9.367   1.727   7.855
29858SOL    HW291582   9.314   1.836   7.764
29859SOL     OW91583   9.196   0.970   8.059
29859SOL    HW191584   9.233   0.891   8.017
29859SOL    HW291585   9.102   0.951   8.058
29860SOL     OW91586   9.086   1.146   7.875
29860SOL    HW191587   9.175   1.109   7.864
29860SOL    HW291588   9.098   1.201   7.954
29861SOL     OW91589   7.571   0.739   9.030
29861SOL    HW191590   7.655   0.784   9.046
29861SOL    HW291591   7.507   0.811   9.042
29862SOL     OW91592   8.039   1.409   8.201
29862SOL    HW191593   8.002   1.319   8.214
29862SOL    HW291594   8.029   1.418   8.104
29863SOL     OW91595   8.731   1.235   8.875
29863SOL    HW191596   8.767   1.165   8.818
29863SOL    HW291597   8.786   1.225   8.956
29864SOL     OW91598   8.279   0.003   7.976
29864SOL    HW191599   8.307   0.093   7.952
29864SOL    HW291600   8.184   0.004   7.953
29865SOL     OW91601   7.634   0.982   8.706
29865SOL    HW191602   7.723   0.948   8.688
29865SOL    HW291603   7.577   0.914   8.666
29866SOL     OW91604   8.980   0.970   7.631
29866SOL    HW191605   8.903   0.923   7.668
29866SOL    HW291606   9.023   1.005   7.711
29867SOL     OW91607   8.631   1.812   9.065
29867SOL    HW191608   8.633   1.876   8.992
29867SOL    HW291609   8.648   1.728   9.019
29868SOL     OW91610   7.779   0.259   9.242
29868SOL    HW191611   7.800   0.338   9.294
29868SOL    HW291612   7.682   0.257   9.249
29869SOL     OW91613   8.916   1.431   8.420
29869SOL    HW191614   8.849   1.444   8.491
29869SOL    HW291615   8.892   1.342   8.387
29870SOL     OW91616   9.110   1.727   8.044
29870SOL    HW191617   9.091   1.691   7.956
29870SOL    HW291618   9.071   1.658   8.101
29871SOL     OW91619   8.045   0.702   7.716
29871SOL    HW191620   8.049   0.784   7.665
29871SOL    HW291621   7.977   0.721   7.783
29872SOL     OW91622   8.711   0.371   8.384
29872SOL    HW191623   8.628   0.321   8.393
29872SOL    HW291624   8.774   0.316   8.435
29873SOL     OW91625   9.025   1.642   7.762
29873SOL    HW191626   9.116   1.675   7.756
29873SOL    HW291627   9.003   1.634   7.668
29874SOL     OW91628   8.841   0.486   9.113
29874SOL    HW191629   8.841   0.538   9.196
29874SOL    HW291630   8.905   0.416   9.134
29875SOL     OW91631   8.413   0.893   9.025
29875SOL    HW191632   8.457   0.812   8.990
29875SOL    HW291633   8.371   0.928   8.944
29876SOL     OW91634   8.408   0.387   8.666
29876SOL    HW191635   8.314   0.405   8.654
29876SOL    HW291636   8.432   0.337   8.587
29877SOL     OW91637   8.507   0.698   7.877
29877SOL    HW191638   8.525   0.697   7.973
29877SOL    HW291639   8.420   0.653   7.872
29878SOL     OW91640   7.557   0.840   8.228
29878SOL    HW191641   7.630   0.829   8.292
29878SOL    HW291642   7.512   0.918   8.264
29879SOL     OW91643   7.549   1.844   9.004
29879SOL    HW191644   7.565   1.827   9.100
29879SOL    HW291645   7.455   1.829   8.998
29880SOL     OW91646   8.331   0.348   7.672
29880SOL    HW191647   8.375   0.398   7.601
29880SOL    HW291648   8.298   0.272   7.624
29881SOL     OW91649   9.174   0.562   9.281
29881SOL    HW191650   9.135   0.641   9.237
29881SOL    HW291651   9.198   0.509   9.202
29882SOL     OW91652   8.821   1.150   8.000
29882SOL    HW191653   8.902   1.147   7.947
29882SOL    HW291654   8.767   1.213   7.949
29883SOL     OW91655   7.984   0.200   8.330
29883SOL    HW191656   8.006   0.218   8.423
29883SOL    HW291657   7.990   0.285   8.287
29884SOL     OW91658   8.438   1.434   7.940
29884SOL    HW191659   8.396   1.502   7.884
29884SOL    HW291660   8.449   1.481   8.024
29885SOL     OW91661   7.792   1.810   8.303
29885SOL    HW191662   7.837   1.724   8.314
29885SOL    HW291663   7.864   1.872   8.324
29886SOL     OW91664   9.270   1.047   8.312
29886SOL    HW191665   9.228   1.029   8.225
29886SOL    HW291666   9.198   1.026   8.373
29887SOL     OW91667   8.674   1.570   8.947
29887SOL    HW191668   8.655   1.506   9.018
29887SOL    HW291669   8.620   1.534   8.875
29888SOL     OW91670   7.752   0.955   7.700
29888SOL    HW191671   7.840   0.961   7.659
29888SOL    HW291672   7.723   0.866   7.675
29889SOL     OW91673   7.919   1.250   9.166
29889SOL    HW191674   7.860   1.264   9.089
29889SOL    HW291675   7.863   1.274   9.241
29890SOL     OW91676   8.522   1.789   7.709
29890SOL    HW191677   8.496   1.697   7.711
29890SOL    HW291678   8.591   1.789   7.640
29891SOL     OW91679   7.628   0.321   8.965
29891SOL    HW191680   7.540   0.361   8.977
29891SOL    HW291681   7.609   0.228   8.992
29892SOL     OW91682   9.078   1.364   7.538
29892SOL    HW191683   9.027   1.445   7.520
29892SOL    HW291684   9.016   1.295   7.509
29893SOL     OW91685   7.911   1.735   7.762
29893SOL    HW191686   7.960   1.785   7.830
29893SOL    HW291687   7.983   1.709   7.701
29894SOL     OW91688   8.841   0.078   7.907
29894SOL    HW191689   8.838   0.080   7.810
29894SOL    HW291690   8.931   0.107   7.927
29895SOL     OW91691   7.694   1.795   8.684
29895SOL    HW191692   7.756   1.757   8.747
29895SOL    HW291693   7.704   1.739   8.606
29896SOL     OW91694   8.405   1.700   8.330
29896SOL    HW191695   8.491   1.655   8.333
29896SOL    HW291696   8.361   1.652   8.257
29897SOL     OW91697   7.845   0.705   7.915
29897SOL    HW191698   7.857   0.608   7.926
29897SOL    HW291699   7.756   0.717   7.951
29898SOL     OW91700   8.984   0.245   9.167
29898SOL    HW191701   8.984   0.254   9.265
29898SOL    HW291702   8.930   0.165   9.158
29899SOL     OW91703   8.091   0.129   7.537
29899SOL    HW191704   8.121   0.045   7.576
29899SOL    HW291705   8.036   0.097   7.462
29900SOL     OW91706   8.219   0.280   9.182
29900SOL    HW191707   8.303   0.231   9.191
29900SOL    HW291708   8.172   0.250   9.263
29901SOL     OW91709   8.331   1.548   8.644
29901SOL    HW191710   8.328   1.522   8.550
29901SOL    HW291711   8.391   1.482   8.683
29902SOL     OW91712   8.766   0.597   8.875
29902SOL    HW191713   8.809   0.561   8.955
29902SOL    HW291714   8.823   0.672   8.852
29903SOL     OW91715   8.258   1.413   8.385
29903SOL    HW191716   8.344   1.397   8.340
29903SOL    HW291717   8.197   1.424   8.310
29904SOL     OW91718   8.386   0.529   8.353
29904SOL    HW191719   8.365   0.514   8.258
29904SOL    HW291720   8.429   0.446   8.376
29905SOL     OW91721   7.996   0.034   7.949
29905SOL    HW191722   7.909   0.032   7.994
29905SOL    HW291723   7.984   0.112   7.892
29906SOL     OW91724   8.891   1.182   7.476
29906SOL    HW191725   8.910   1.109   7.538
29906SOL    HW291726   8.813   1.225   7.515
29907SOL     OW91727   7.751   0.041   7.666
29907SOL    HW191728   7.806   0.121   7.672
29907SOL    HW291729   7.811  11.073   7.695
29908SOL     OW91730   8.384   0.253   7.932
29908SOL    HW191731   8.363   0.289   7.845
29908SOL    HW291732   8.481   0.260   7.932
29909SOL     OW91733   8.510   0.667   8.914
29909SOL    HW191734   8.500   0.578   8.950
29909SOL    HW291735   8.606   0.664   8.894
29910SOL     OW91736   8.666   1.593   8.243
29910SOL    HW191737   8.669   1.647   8.162
29910SOL    HW291738   8.753   1.609   8.282
29911SOL     OW91739   7.921   1.166   8.197
29911SOL    HW191740   7.847   1.136   8.254
29911SOL    HW291741   7.886   1.146   8.108
29912SOL     OW91742   8.704   1.802   8.048
29912SOL    HW191743   8.752   1.857   7.982
29912SOL    HW291744   8.679   1.870   8.113
29913SOL     OW91745   8.507   0.552   7.457
29913SOL    HW191746   8.458   0.634   7.439
29913SOL    HW291747   8.573   0.580   7.523
29914SOL     OW91748   7.518   0.568   8.837
29914SOL    HW191749   7.613   0.557   8.816
29914SOL    HW291750   7.522   0.637   8.906
29915SOL     OW91751   7.999   0.239   8.621
29915SOL    HW191752   8.045   0.169   8.671
29915SOL    HW291753   7.906   0.228   8.651
29916SOL     OW91754   8.324   0.455   8.106
29916SOL    HW191755   8.285   0.511   8.038
29916SOL    HW291756   8.343   0.373   8.056
29917SOL     OW91757   8.455   0.008   8.223
29917SOL    HW191758   8.414   0.040   8.141
29917SOL    HW291759   8.416  11.021   8.232
29918SOL     OW91760   8.878   1.186   8.326
29918SOL    HW191761   8.842   1.098   8.345
29918SOL    HW291762   8.881   1.183   8.229
29919SOL     OW91763   8.881   0.595   8.489
29919SOL    HW191764   8.840   0.529   8.431
29919SOL    HW291765   8.974   0.589   8.468
29920SOL     OW91766   9.293   0.795   7.836
29920SOL    HW191767   9.351   0.748   7.900
29920SOL    HW291768   9.278   0.726   7.768
29921SOL     OW91769   7.937   1.440   7.563
29921SOL    HW191770   7.862   1.416   7.621
29921SOL    HW291771   7.944   1.364   7.503
29922SOL     OW91772   9.116   1.303   8.104
29922SOL    HW191773   9.214   1.307   8.108
29922SOL    HW291774   9.088   1.391   8.130
29923SOL     OW91775   8.855   0.594   7.510
29923SOL    HW191776   8.809   0.573   7.594
29923SOL    HW291777   8.943   0.560   7.526
29924SOL     OW91778   7.967   0.245   7.749
29924SOL    HW191779   8.018   0.210   7.673
29924SOL    HW291780   7.941   0.334   7.715
29925SOL     OW91781   9.182   1.234   9.021
29925SOL    HW191782   9.271   1.198   9.013
29925SOL    HW291783   9.202   1.328   9.038
29926SOL     OW91784   8.510   1.373   8.795
29926SOL    HW191785   8.436   1.338   8.845
29926SOL    HW291786   8.586   1.323   8.833
29927SOL     OW91787   9.069   1.615   9.086
29927SOL    HW191788   9.067   1.651   8.995
29927SOL    HW291789   9.146   1.556   9.082
29928SOL     OW91790   8.569   1.230   8.548
29928SOL    HW191791   8.499   1.256   8.608
29928SOL    HW291792   8.541   1.269   8.464
29929SOL     OW91793   9.045   1.095   8.521
29929SOL    HW191794   9.061   1.158   8.594
29929SOL    HW291795   8.991   1.149   8.461
29930SOL     OW91796   8.350   0.113   8.841
29930SOL    HW191797   8.378   0.079   8.753
29930SOL    HW291798   8.436   0.137   8.880
29931SOL     OW91799   8.445   1.120   9.192
29931SOL    HW191800   8.356   1.154   9.212
29931SOL    HW291801   8.427   1.050   9.127
29932SOL     OW91802   8.155   1.057   7.788
29932SOL    HW191803   8.142   1.039   7.882
29932SOL    HW291804   8.235   1.003   7.768
29933SOL     OW91805   7.871   0.803   8.712
29933SOL    HW191806   7.943   0.787   8.776
29933SOL    HW291807   7.821   0.720   8.717
29934SOL     OW91808   8.732   0.379   8.717
29934SOL    HW191809   8.754   0.458   8.769
29934SOL    HW291810   8.656   0.410   8.666
29935SOL     OW91811   7.527   1.567   8.789
29935SOL    HW191812   7.533   1.660   8.763
29935SOL    HW291813   7.621   1.539   8.785
29936SOL     OW91814   7.823   1.112   7.949
29936SOL    HW191815   7.876   1.157   7.883
29936SOL    HW291816   7.789   1.036   7.900
29937SOL     OW91817   7.984   0.545   8.283
29937SOL    HW191818   8.016   0.608   8.215
29937SOL    HW291819   8.054   0.550   8.349
29938SOL     OW91820   8.678   1.333   7.846
29938SOL    HW191821   8.721   1.414   7.879
29938SOL    HW291822   8.586   1.348   7.873
29939SOL     OW91823   8.742   1.471   8.622
29939SOL    HW191824   8.802   1.463   8.698
29939SOL    HW291825   8.677   1.401   8.638
29940SOL     OW91826   9.030   0.609   7.909
29940SOL    HW191827   8.991   0.652   7.988
29940SOL    HW291828   9.058   0.687   7.858
29941SOL     OW91829   7.786   1.500   8.762
29941SOL    HW191830   7.779   1.468   8.670
29941SOL    HW291831   7.877   1.535   8.762
29942SOL     OW91832   7.887   0.723   9.085
29942SOL    HW191833   7.946   0.772   9.025
29942SOL    HW291834   7.894   0.633   9.051
29943SOL     OW91835   9.077   0.769   9.137
29943SOL    HW191836   8.990   0.810   9.134
29943SOL    HW291837   9.121   0.814   9.061
29944SOL     OW91838   8.446   0.136   9.214
29944SOL    HW191839   8.509   0.209   9.217
29944SOL    HW291840   8.502   0.067   9.174
29945SOL     OW91841   7.948   0.056   9.189
29945SOL    HW191842   7.882  11.100   9.147
29945SOL    HW291843   7.892   0.133   9.213
29946SOL     OW91844   8.071   0.887   8.509
29946SOL    HW191845   8.084   0.983   8.496
29946SOL    HW291846   7.995   0.883   8.568
29947SOL     OW91847   8.801   0.875   8.482
29947SOL    HW191848   8.735   0.844   8.418
29947SOL    HW291849   8.850   0.793   8.494
29948SOL     OW91850   8.679   0.520   7.713
29948SOL    HW191851   8.685   0.440   7.769
29948SOL    HW291852   8.622   0.577   7.767
29949SOL     OW91853   7.747   0.208   8.717
29949SOL    HW191854   7.696   0.249   8.789
29949SOL    HW291855   7.696   0.128   8.700
29950SOL     OW91856   7.481   1.303   8.730
29950SOL    HW191857   7.504   1.247   8.807
29950SOL    HW291858   7.494   1.393   8.762
29951SOL     OW91859   8.159   0.611   8.485
29951SOL    HW191860   8.246   0.594   8.441
29951SOL    HW291861   8.148   0.707   8.475
29952SOL     OW91862   9.215   0.969   9.292
29952SOL    HW191863   9.174   0.916   9.221
29952SOL    HW291864   9.144   0.967   9.359
29953SOL     OW91865   7.751   0.066   8.054
29953SOL    HW191866   7.722   0.155   8.081
29953SOL    HW291867   7.753   0.022   8.141
29954SOL     OW91868   9.039   0.389   7.769
29954SOL    HW191869   9.074   0.322   7.830
29954SOL    HW291870   9.026   0.466   7.829
29955SOL     OW91871   8.521   0.752   8.411
29955SOL    HW191872   8.503   0.768   8.505
29955SOL    HW291873   8.482   0.663   8.399
29956SOL     OW91874   8.425   1.569   9.158
29956SOL    HW191875   8.411   1.619   9.075
29956SOL    HW291876   8.455   1.482   9.125
29957SOL     OW91877   9.298   1.484   9.051
29957SOL    HW191878   9.322   1.517   8.962
29957SOL    HW291879   9.376   1.513   9.103
29958SOL     OW91880   7.809   0.911   9.256
29958SOL    HW191881   7.890   0.942   9.299
29958SOL    HW291882   7.839   0.830   9.210
29959SOL     OW91883   8.953   0.247   7.553
29959SOL    HW191884   8.879   0.197   7.593
29959SOL    HW291885   8.985   0.302   7.627
29960SOL     OW91886   8.724   0.830   7.459
29960SOL    HW191887   8.776   0.749   7.474
29960SOL    HW291888   8.763   0.861   7.374
29961SOL     OW91889   8.510   1.370   8.294
29961SOL    HW191890   8.533   1.296   8.234
29961SOL    HW291891   8.578   1.438   8.274
29962SOL     OW91892   7.743   0.823   8.446
29962SOL    HW191893   7.834   0.835   8.417
29962SOL    HW291894   7.741   0.728   8.467
29963SOL     OW91895   7.780   0.541   8.451
29963SOL    HW191896   7.739   0.455   8.430
29963SOL    HW291897   7.849   0.546   8.381
29964SOL     OW91898   8.581   0.410   9.107
29964SOL    HW191899   8.550   0.446   9.192
29964SOL    HW291900   8.676   0.431   9.110
29965SOL     OW91901   8.610   0.216   8.911
29965SOL    HW191902   8.605   0.285   8.980
29965SOL    HW291903   8.646   0.266   8.836
29966SOL     OW91904   7.447   1.318   7.650
29966SOL    HW191905   7.355   1.323   7.615
29966SOL    HW291906   7.449   1.225   7.681
29967SOL     OW91907   7.545   1.776   8.392
29967SOL    HW191908   7.521   1.703   8.331
29967SOL    HW291909   7.638   1.795   8.363
29968SOL     OW91910   7.930   1.587   8.378
29968SOL    HW191911   7.996   1.655   8.402
29968SOL    HW291912   7.981   1.527   8.321
29969SOL     OW91913   8.423   0.764   8.667
29969SOL    HW191914   8.462   0.732   8.750
29969SOL    HW291915   8.336   0.797   8.693
29970SOL     OW91916   7.480   0.539   8.559
29970SOL    HW191917   7.555   0.511   8.506
29970SOL    HW291918   7.514   0.537   8.650
29971SOL     OW91919   7.654   0.520   9.166
29971SOL    HW191920   7.670   0.453   9.097
29971SOL    HW291921   7.623   0.597   9.115
29972SOL     OW91922   8.838   0.923   9.108
29972SOL    HW191923   8.869   1.016   9.102
29972SOL    HW291924   8.830   0.900   9.014
29973SOL     OW91925   8.267   0.582   7.828
29973SOL    HW191926   8.278   0.502   7.774
29973SOL    HW291927   8.186   0.622   7.790
29974SOL     OW91928   9.115   0.641   8.673
29974SOL    HW191929   9.054   0.569   8.694
29974SOL    HW291930   9.185   0.597   8.621
29975SOL     OW91931   7.694   1.537   9.168
29975SOL    HW191932   7.685   1.603   9.238
29975SOL    HW291933   7.704   1.455   9.220
29976SOL     OW91934   8.137   0.467   8.708
29976SOL    HW191935   8.086   0.392   8.672
29976SOL    HW291936   8.136   0.529   8.632
29977SOL     OW91937   8.374   1.702   8.927
29977SOL    HW191938   8.354   1.668   8.839
29977SOL    HW291939   8.364   1.798   8.916
29978SOL     OW91940   7.898   0.476   7.643
29978SOL    HW191941   7.958   0.550   7.657
29978SOL    HW291942   7.812   0.522   7.640
29979SOL     OW91943   7.558   1.129   8.924
29979SOL    HW191944   7.569   1.072   9.004
29979SOL    HW291945   7.586   1.069   8.852
29980SOL     OW91946   8.766   1.041   8.685
29980SOL    HW191947   8.784   0.984   8.606
29980SOL    HW291948   8.708   1.108   8.644
29981SOL     OW91949   8.753   0.851   7.735
29981SOL    HW191950   8.675   0.827   7.786
29981SOL    HW291951   8.723   0.850   7.643
29982SOL     OW91952   9.209   1.750   8.581
29982SOL    HW191953   9.278   1.772   8.515
29982SOL    HW291954   9.194   1.655   8.560
29983SOL     OW91955   8.691   1.729   8.552
29983SOL    HW191956   8.776   1.749   8.509
29983SOL    HW291957   8.701   1.634   8.573
29984SOL     OW91958   7.548   1.256   8.475
29984SOL    HW191959   7.519   1.272   8.567
29984SOL    HW291960   7.472   1.208   8.439
29985SOL     OW91961   8.131   1.676   9.117
29985SOL    HW191962   8.128   1.691   9.213
29985SOL    HW291963   8.224   1.689   9.098
29986SOL     OW91964   9.136   0.108   7.944
29986SOL    HW191965   9.211   0.127   7.885
29986SOL    HW291966   9.175   0.054   8.014
29987SOL     OW91967   8.810   1.570   7.927
29987SOL    HW191968   8.874   1.585   7.855
29987SOL    HW291969   8.772   1.659   7.940
29988SOL     OW91970   7.596   1.806   9.271
29988SOL    HW191971   7.552   1.733   9.320
29988SOL    HW291972   7.647   1.847   9.343
29989SOL     OW91973   8.704   0.934   8.134
29989SOL    HW191974   8.782   0.875   8.144
29989SOL    HW291975   8.742   1.003   8.076
29990SOL     OW91976   8.229   1.237   8.885
29990SOL    HW191977   8.211   1.291   8.965
29990SOL    HW291978   8.157   1.267   8.827
29991SOL     OW91979   8.127   1.621   7.604
29991SOL    HW191980   8.145   1.632   7.509
29991SOL    HW291981   8.065   1.545   7.600
29992SOL     OW91982   9.075   1.714   8.833
29992SOL    HW191983   9.119   1.729   8.748
29992SOL    HW291984   9.063   1.806   8.867
29993SOL     OW91985   9.300   0.125   8.401
29993SOL    HW191986   9.323   0.052   8.342
29993SOL    HW291987   9.219   0.162   8.358
29994SOL     OW91988   7.696   0.310   8.152
29994SOL    HW191989   7.607   0.345   8.131
29994SOL    HW291990   7.694   0.308   8.249
29995SOL     OW91991   8.618   1.629   7.483
29995SOL    HW191992   8.652   1.539   7.489
29995SOL    HW291993   8.574   1.633   7.396
29996SOL     OW91994   8.268   0.986   8.817
29996SOL    HW191995   8.293   1.012   8.727
29996SOL    HW291996   8.254   1.074   8.858
29997SOL     OW91997   8.356   0.901   7.715
29997SOL    HW191998   8.431   0.934   7.661
29997SOL    HW291999   8.397   0.829   7.766
29998SOL     OW92000   8.939   1.590   7.489
29998SOL    HW192001   8.876   1.662   7.507
29998SOL    HW292002   8.973   1.618   7.402
29999SOL     OW92003   7.792   1.282   8.932
29999SOL    HW192004   7.778   1.356   8.871
29999SOL    HW292005   7.708   1.233   8.928
30000SOL     OW92006   9.058   1.310   8.714
30000SOL    HW192007   9.095   1.276   8.797
30000SOL    HW292008   8.995   1.376   8.747
30001SOL     OW92009   8.503   1.127   8.169
30001SOL    HW192010   8.430   1.074   8.205
30001SOL    HW292011   8.568   1.058   8.148
30002SOL     OW92012   8.473   0.244   8.431
30002SOL    HW192013   8.455   0.203   8.345
30002SOL    HW292014   8.472   0.166   8.488
30003SOL     OW92015   8.050   1.468   7.938
30003SOL    HW192016   8.108   1.433   7.868
30003SOL    HW292017   8.002   1.537   7.891
30004SOL     OW92018   9.152   0.377   8.836
30004SOL    HW192019   9.197   0.462   8.822
30004SOL    HW292020   9.202   0.318   8.776
30005SOL     OW92021   7.694   1.388   7.714
30005SOL    HW192022   7.604   1.351   7.716
30005SOL    HW292023   7.711   1.399   7.810
30006SOL     OW92024   7.572   0.991   9.152
30006SOL    HW192025   7.501   0.989   9.219
30006SOL    HW292026   7.652   0.970   9.204
30007SOL     OW92027   8.127   0.239   8.929
30007SOL    HW192028   8.198   0.183   8.889
30007SOL    HW292029   8.149   0.232   9.024
30008SOL     OW92030   7.518   0.354   7.471
30008SOL    HW192031   7.425   0.377   7.460
30008SOL    HW292032   7.562   0.421   7.415
30009SOL     OW92033   8.895   0.852   8.845
30009SOL    HW192034   8.853   0.914   8.782
30009SOL    HW292035   8.989   0.868   8.828
30010SOL     OW92036   7.486   0.172   7.765
30010SOL    HW192037   7.491   0.239   7.696
30010SOL    HW292038   7.573   0.129   7.758
30011SOL     OW92039   8.662   1.340   7.563
30011SOL    HW192040   8.573   1.302   7.567
30011SOL    HW292041   8.683   1.352   7.657
30012SOL     OW92042   8.074   0.788   8.884
30012SOL    HW192043   8.077   0.880   8.853
30012SOL    HW292044   8.163   0.781   8.919
30013SOL     OW92045   8.949   1.758   8.418
30013SOL    HW192046   8.984   1.797   8.337
30013SOL    HW292047   9.028   1.753   8.473
30014SOL     OW92048   8.190   0.567   9.134
30014SOL    HW192049   8.228   0.637   9.192
30014SOL    HW292050   8.165   0.498   9.198
30015SOL     OW92051   8.913   1.187   9.076
30015SOL    HW192052   8.904   1.192   9.174
30015SOL    HW292053   9.007   1.209   9.064
30016SOL     OW92054   7.816   1.734   9.001
30016SOL    HW192055   7.728   1.774   8.996
30016SOL    HW292056   7.798   1.650   9.046
30017SOL     OW92057   9.145   0.913   8.696
30017SOL    HW192058   9.132   0.819   8.672
30017SOL    HW292059   9.104   0.960   8.620
30018SOL     OW92060   8.664   0.306   7.901
30018SOL    HW192061   8.714   0.223   7.909
30018SOL    HW292062   8.692   0.354   7.983
30019SOL     OW92063   8.037   0.759   8.104
30019SOL    HW192064   8.074   0.849   8.097
30019SOL    HW292065   7.973   0.757   8.031
30020SOL     OW92066   9.219   0.370   9.092
30020SOL    HW192067   9.190   0.377   8.999
30020SOL    HW292068   9.146   0.316   9.129
30021SOL     OW92069   9.182   0.941   8.957
30021SOL    HW192070   9.188   1.037   8.958
30021SOL    HW292071   9.195   0.921   8.863
30022SOL     OW92072   8.302   1.368   7.479
30022SOL    HW192073   8.287   1.383   7.574
30022SOL    HW292074   8.335   1.453   7.446
30023SOL     OW92075   8.092   1.812   8.380
30023SOL    HW192076   8.087   1.907   8.357
30023SOL    HW292077   8.186   1.794   8.383
30024SOL     OW92078   8.329   0.952   8.297
30024SOL    HW192079   8.380   0.875   8.326
30024SOL    HW292080   8.318   1.002   8.379
30025SOL     OW92081   8.543   0.992   7.544
30025SOL    HW192082   8.522   1.051   7.470
30025SOL    HW292083   8.606   0.928   7.501
30026SOL     OW92084   9.311   1.566   8.283
30026SOL    HW192085   9.219   1.560   8.255
30026SOL    HW292086   9.321   1.492   8.344
30027SOL     OW92087   7.682   1.314   9.315
30027SOL    HW192088   7.613   1.249   9.300
30027SOL    HW292089   7.684   1.323   9.411
30028SOL     OW92090   7.536   1.248   8.105
30028SOL    HW192091   7.545   1.199   8.188
30028SOL    HW292092   7.598   1.202   8.047
30029SOL     OW92093   8.126   1.398   9.069
30029SOL    HW192094   8.048   1.349   9.101
30029SOL    HW292095   8.106   1.489   9.094
30030SOL     OW92096   9.275   0.200   8.670
30030SOL    HW192097   9.262   0.105   8.685
30030SOL    HW292098   9.284   0.203   8.573
30031SOL     OW92099   7.856   0.428   7.949
30031SOL    HW192100   7.894   0.351   7.903
30031SOL    HW292101   7.814   0.387   8.026
30032SOL     OW92102   9.159   1.497   8.531
30032SOL    HW192103   9.074   1.472   8.491
30032SOL    HW292104   9.162   1.432   8.604
30033SOL     OW92105   7.773   0.547   8.723
30033SOL    HW192106   7.842   0.497   8.768
30033SOL    HW292107   7.789   0.530   8.628
30034SOL     OW92108   8.271   1.589   8.122
30034SOL    HW192109   8.271   1.619   8.030
30034SOL    HW292110   8.187   1.542   8.130
30035SOL     OW92111   8.867   0.231   8.543
30035SOL    HW192112   8.901   0.156   8.592
30035SOL    HW292113   8.824   0.286   8.613
30036SOL     OW92114   8.450   0.002   8.603
30036SOL    HW192115   8.403  11.019   8.593
30036SOL    HW292116   8.543  11.076   8.588
30037SOL     OW92117   8.234   1.335   7.764
30037SOL    HW192118   8.212   1.241   7.760
30037SOL    HW292119   8.303   1.338   7.832
30038SOL     OW92120   8.048   1.560   8.718
30038SOL    HW192121   8.049   1.649   8.760
30038SOL    HW292122   8.141   1.555   8.690
30039SOL     OW92123   8.768   0.070   7.644
30039SOL    HW192124   8.784  11.097   7.584
30039SOL    HW292125   8.674   0.057   7.668
30040SOL     OW92126   8.731   0.437   8.118
30040SOL    HW192127   8.726   0.533   8.110
30040SOL    HW292128   8.714   0.423   8.213
30041SOL     OW92129   9.066   0.216   8.306
30041SOL    HW192130   8.993   0.221   8.369
30041SOL    HW292131   9.065   0.308   8.272
30042SOL     OW92132   7.493   1.053   7.754
30042SOL    HW192133   7.586   1.041   7.726
30042SOL    HW292134   7.469   0.962   7.781
30043SOL     OW92135   8.311   1.625   7.809
30043SOL    HW192136   8.256   1.629   7.729
30043SOL    HW292137   8.321   1.719   7.834
30044SOL     OW92138   7.677   0.617   9.443
30044SOL    HW192139   7.585   0.617   9.472
30044SOL    HW292140   7.671   0.603   9.347
30045SOL     OW92141   7.653   0.296  10.299
30045SOL    HW192142   7.675   0.270  10.390
30045SOL    HW292143   7.588   0.227  10.276
30046SOL     OW92144   7.453   0.397   9.953
30046SOL    HW192145   7.377   0.433  10.003
30046SOL    HW292146   7.409   0.331   9.898
30047SOL     OW92147   8.015   1.314  10.464
30047SOL    HW192148   7.922   1.295  10.448
30047SOL    HW292149   8.011   1.393  10.519
30048SOL     OW92150   8.995   1.531  10.014
30048SOL    HW192151   8.954   1.491  10.093
30048SOL    HW292152   8.924   1.529   9.946
30049SOL     OW92153   8.571   0.698  10.003
30049SOL    HW192154   8.614   0.786  10.003
30049SOL    HW292155   8.521   0.702  10.086
30050SOL     OW92156   9.237   0.604   9.535
30050SOL    HW192157   9.209   0.589   9.442
30050SOL    HW292158   9.202   0.524   9.578
30051SOL     OW92159   8.198   1.160  10.338
30051SOL    HW192160   8.128   1.210  10.386
30051SOL    HW292161   8.235   1.233  10.284
30052SOL     OW92162   8.336   0.782  11.095
30052SOL    HW192163   8.311   0.833   0.071
30052SOL    HW292164   8.379   0.849  11.039
30053SOL     OW92165   8.139   1.024   9.962
30053SOL    HW192166   8.201   1.011  10.036
30053SOL    HW292167   8.068   1.075  10.003
30054SOL     OW92168   7.762   1.436  10.380
30054SOL    HW192169   7.690   1.389  10.334
30054SOL    HW292170   7.811   1.480  10.309
30055SOL     OW92171   8.912   1.506  10.652
30055SOL    HW192172   8.977   1.577  10.672
30055SOL    HW292173   8.856   1.506  10.731
30056SOL     OW92174   7.893   0.404  10.814
30056SOL    HW192175   7.963   0.340  10.793
30056SOL    HW292176   7.811   0.351  10.815
30057SOL     OW92177   9.063   0.457  10.062
30057SOL    HW192178   9.011   0.494   9.989
30057SOL    HW292179   9.051   0.523  10.132
30058SOL     OW92180   7.665   1.713   9.791
30058SOL    HW192181   7.697   1.791   9.840
30058SOL    HW292182   7.729   1.710   9.717
30059SOL     OW92183   7.706   1.443   9.858
30059SOL    HW192184   7.699   1.539   9.853
30059SOL    HW292185   7.631   1.418   9.913
30060SOL     OW92186   7.722   1.075  10.200
30060SOL    HW192187   7.725   1.000  10.261
30060SOL    HW292188   7.665   1.138  10.248
30061SOL     OW92189   8.050   1.801  10.726
30061SOL    HW192190   7.977   1.776  10.786
30061SOL    HW292191   8.065   1.895  10.750
30062SOL     OW92192   8.024   0.995   9.418
30062SOL    HW192193   8.072   1.056   9.359
30062SOL    HW292194   8.054   1.027   9.505
30063SOL     OW92195   9.059   0.138  10.789
30063SOL    HW192196   9.073   0.222  10.743
30063SOL    HW292197   8.996   0.162  10.857
30064SOL     OW92198   7.578   0.660   9.887
30064SOL    HW192199   7.541   0.574   9.914
30064SOL    HW292200   7.569   0.715   9.967
30065SOL     OW92201   9.290   1.729   9.655
30065SOL    HW192202   9.363   1.715   9.718
30065SOL    HW292203   9.305   1.822   9.630
30066SOL     OW92204   7.507   1.602   9.428
30066SOL    HW192205   7.501   1.508   9.451
30066SOL    HW292206   7.473   1.645   9.508
30067SOL     OW92207   9.139   0.916   9.907
30067SOL    HW192208   9.203   0.870   9.850
30067SOL    HW292209   9.108   0.987   9.848
30068SOL     OW92210   9.091   1.132   9.744
30068SOL    HW192211   9.182   1.128   9.708
30068SOL    HW292212   9.101   1.197   9.816
30069SOL     OW92213   7.564   0.727  10.909
30069SOL    HW192214   7.657   0.740  10.932
30069SOL    HW292215   7.529   0.818  10.913
30070SOL     OW92216   8.040   1.410  10.067
30070SOL    HW192217   8.003   1.319  10.074
30070SOL    HW292218   8.027   1.429   9.972
30071SOL     OW92219   8.748   1.237  10.741
30071SOL    HW192220   8.763   1.169  10.673
30071SOL    HW292221   8.793   1.202  10.819
30072SOL     OW92222   8.274   0.006   9.843
30072SOL    HW192223   8.306   0.094   9.817
30072SOL    HW292224   8.179   0.011   9.820
30073SOL     OW92225   7.651   0.973  10.609
30073SOL    HW192226   7.733   0.922  10.592
30073SOL    HW292227   7.586   0.928  10.554
30074SOL     OW92228   8.991   0.960   9.484
30074SOL    HW192229   8.915   0.911   9.519
30074SOL    HW292230   9.035   0.989   9.565
30075SOL     OW92231   8.652   1.804  10.909
30075SOL    HW192232   8.640   1.873  10.843
30075SOL    HW292233   8.657   1.723  10.854
30076SOL     OW92234   7.754   0.241   0.033
30076SOL    HW192235   7.820   0.311   0.022
30076SOL    HW292236   7.671   0.292   0.034
30077SOL     OW92237   8.872   1.428  10.251
30077SOL    HW192238   8.815   1.421  10.330
30077SOL    HW292239   8.880   1.334  10.225
30078SOL     OW92240   9.101   1.743   9.897
30078SOL    HW192241   9.090   1.701   9.811
30078SOL    HW292242   9.074   1.671   9.958
30079SOL     OW92243   8.041   0.715   9.573
30079SOL    HW192244   8.045   0.802   9.532
30079SOL    HW292245   7.973   0.727   9.642
30080SOL     OW92246   8.717   0.371  10.244
30080SOL    HW192247   8.634   0.318  10.247
30080SOL    HW292248   8.775   0.318  10.301
30081SOL     OW92249   9.023   1.643   9.620
30081SOL    HW192250   9.117   1.663   9.621
30081SOL    HW292251   9.007   1.639   9.524
30082SOL     OW92252   8.269   0.590  10.768
30082SOL    HW192253   8.232   0.573  10.856
30082SOL    HW292254   8.213   0.535  10.710
30083SOL     OW92255   8.453   0.929  10.864
30083SOL    HW192256   8.480   0.842  10.829
30083SOL    HW292257   8.374   0.950  10.811
30084SOL     OW92258   8.425   0.404  10.538
30084SOL    HW192259   8.339   0.438  10.568
30084SOL    HW292260   8.400   0.345  10.467
30085SOL     OW92261   8.504   0.708   9.730
30085SOL    HW192262   8.521   0.709   9.826
30085SOL    HW292263   8.418   0.659   9.727
30086SOL     OW92264   7.562   0.821  10.105
30086SOL    HW192265   7.631   0.825  10.172
30086SOL    HW292266   7.518   0.908  10.114
30087SOL     OW92267   7.558   1.836  10.868
30087SOL    HW192268   7.551   1.787  10.951
30087SOL    HW292269   7.467   1.840  10.837
30088SOL     OW92270   8.329   0.368   9.528
30088SOL    HW192271   8.377   0.416   9.459
30088SOL    HW292272   8.307   0.286   9.483
30089SOL     OW92273   8.812   1.152   9.881
30089SOL    HW192274   8.884   1.136   9.818
30089SOL    HW292275   8.753   1.207   9.826
30090SOL     OW92276   7.986   0.196  10.179
30090SOL    HW192277   8.025   0.213  10.266
30090SOL    HW292278   7.988   0.283  10.136
30091SOL     OW92279   8.451   1.435   9.814
30091SOL    HW192280   8.414   1.493   9.745
30091SOL    HW292281   8.432   1.489   9.892
30092SOL     OW92282   7.789   1.807  10.160
30092SOL    HW192283   7.838   1.724  10.179
30092SOL    HW292284   7.855   1.875  10.180
30093SOL     OW92285   9.252   1.056  10.150
30093SOL    HW192286   9.203   1.014  10.078
30093SOL    HW292287   9.196   1.037  10.227
30094SOL     OW92288   8.674   1.566  10.790
30094SOL    HW192289   8.662   1.516  10.871
30094SOL    HW292290   8.608   1.523  10.733
30095SOL     OW92291   7.764   0.951   9.562
30095SOL    HW192292   7.829   0.985   9.499
30095SOL    HW292293   7.738   0.867   9.522
30096SOL     OW92294   8.933   0.760  10.023
30096SOL    HW192295   8.936   0.724  10.113
30096SOL    HW292296   9.016   0.809  10.015
30097SOL     OW92297   7.922   1.254  11.039
30097SOL    HW192298   7.890   1.267  10.947
30097SOL    HW292299   7.862   1.186  11.070
30098SOL     OW92300   8.532   1.776   9.551
30098SOL    HW192301   8.471   1.721   9.603
30098SOL    HW292302   8.543   1.723   9.470
30099SOL     OW92303   7.643   0.281  10.810
30099SOL    HW192304   7.565   0.331  10.839
30099SOL    HW292305   7.631   0.197  10.859
30100SOL     OW92306   9.066   1.364   9.408
30100SOL    HW192307   9.028   1.450   9.382
30100SOL    HW292308   9.002   1.299   9.373
30101SOL     OW92309   7.889   1.743   9.638
30101SOL    HW192310   7.949   1.787   9.700
30101SOL    HW292311   7.952   1.704   9.573
30102SOL     OW92312   8.837   0.099   9.741
30102SOL    HW192313   8.835   0.082   9.645
30102SOL    HW292314   8.930   0.116   9.760
30103SOL     OW92315   7.681   1.802  10.547
30103SOL    HW192316   7.747   1.746  10.589
30103SOL    HW292317   7.668   1.759  10.461
30104SOL     OW92318   8.408   1.702  10.190
30104SOL    HW192319   8.488   1.648  10.197
30104SOL    HW292320   8.358   1.653  10.121
30105SOL     OW92321   7.840   0.668   9.775
30105SOL    HW192322   7.860   0.573   9.789
30105SOL    HW292323   7.747   0.671   9.801
30106SOL     OW92324   8.097   0.150   9.394
30106SOL    HW192325   8.138   0.071   9.432
30106SOL    HW292326   8.038   0.111   9.327
30107SOL     OW92327   8.195   0.293  11.041
30107SOL    HW192328   8.262   0.237  11.082
30107SOL    HW292329   8.128   0.299   0.008
30108SOL     OW92330   8.343   1.534  10.503
30108SOL    HW192331   8.327   1.494  10.416
30108SOL    HW292332   8.405   1.471  10.544
30109SOL     OW92333   8.780   0.592  10.745
30109SOL    HW192334   8.823   0.550  10.820
30109SOL    HW292335   8.831   0.675  10.736
30110SOL     OW92336   8.271   1.407  10.250
30110SOL    HW192337   8.357   1.394  10.206
30110SOL    HW292338   8.210   1.415  10.175
30111SOL     OW92339   8.404   0.526  10.220
30111SOL    HW192340   8.367   0.502  10.131
30111SOL    HW292341   8.434   0.439  10.249
30112SOL     OW92342   7.987   0.020   9.809
30112SOL    HW192343   7.903   0.017   9.857
30112SOL    HW292344   7.972   0.093   9.747
30113SOL     OW92345   8.891   1.177   9.337
30113SOL    HW192346   8.916   1.100   9.392
30113SOL    HW292347   8.803   1.200   9.370
30114SOL     OW92348   7.750   0.050   9.530
30114SOL    HW192349   7.812   0.124   9.539
30114SOL    HW292350   7.806  11.075   9.546
30115SOL     OW92351   8.381   0.253   9.798
30115SOL    HW192352   8.362   0.294   9.712
30115SOL    HW292353   8.478   0.259   9.800
30116SOL     OW92354   8.535   0.703  10.736
30116SOL    HW192355   8.468   0.635  10.756
30116SOL    HW292356   8.619   0.654  10.742
30117SOL     OW92357   8.674   1.596  10.126
30117SOL    HW192358   8.677   1.648  10.043
30117SOL    HW292359   8.762   1.556  10.128
30118SOL     OW92360   7.922   1.157  10.044
30118SOL    HW192361   7.848   1.126  10.101
30118SOL    HW292362   7.884   1.136   9.955
30119SOL     OW92363   8.706   1.802   9.923
30119SOL    HW192364   8.752   1.868   9.867
30119SOL    HW292365   8.654   1.859   9.982
30120SOL     OW92366   8.506   0.547   9.323
30120SOL    HW192367   8.456   0.629   9.305
30120SOL    HW292368   8.577   0.579   9.381
30121SOL     OW92369   7.536   0.568  10.693
30121SOL    HW192370   7.632   0.563  10.675
30121SOL    HW292371   7.533   0.632  10.768
30122SOL     OW92372   8.013   0.241  10.469
30122SOL    HW192373   8.051   0.186  10.538
30122SOL    HW292374   7.918   0.224  10.480
30123SOL     OW92375   8.311   0.444   9.985
30123SOL    HW192376   8.277   0.501   9.915
30123SOL    HW292377   8.327   0.361   9.936
30124SOL     OW92378   8.436   0.013  10.074
30124SOL    HW192379   8.383   0.043   9.998
30124SOL    HW292380   8.406  11.023  10.084
30125SOL     OW92381   8.877   1.172  10.194
30125SOL    HW192382   8.803   1.113  10.214
30125SOL    HW292383   8.883   1.158  10.097
30126SOL     OW92384   8.945   0.616  10.263
30126SOL    HW192385   8.881   0.544  10.269
30126SOL    HW292386   8.996   0.608  10.346
30127SOL     OW92387   9.282   0.807   9.699
30127SOL    HW192388   9.341   0.761   9.763
30127SOL    HW292389   9.276   0.742   9.626
30128SOL     OW92390   7.924   1.338   9.479
30128SOL    HW192391   7.840   1.372   9.516
30128SOL    HW292392   7.975   1.419   9.468
30129SOL     OW92393   9.120   1.290   9.966
30129SOL    HW192394   9.217   1.297   9.973
30129SOL    HW292395   9.088   1.382   9.972
30130SOL     OW92396   8.844   0.594   9.363
30130SOL    HW192397   8.797   0.567   9.444
30130SOL    HW292398   8.934   0.563   9.381
30131SOL     OW92399   7.951   0.234   9.614
30131SOL    HW192400   8.015   0.213   9.544
30131SOL    HW292401   7.929   0.327   9.591
30132SOL     OW92402   9.205   1.223  10.870
30132SOL    HW192403   9.297   1.202  10.891
30132SOL    HW292404   9.199   1.315  10.901
30133SOL     OW92405   8.495   1.376  10.694
30133SOL    HW192406   8.414   1.327  10.719
30133SOL    HW292407   8.565   1.309  10.707
30134SOL     OW92408   8.561   1.245  10.419
30134SOL    HW192409   8.477   1.231  10.463
30134SOL    HW292410   8.533   1.277  10.331
30135SOL     OW92411   9.066   1.080  10.381
30135SOL    HW192412   9.071   1.145  10.454
30135SOL    HW292413   9.008   1.125  10.318
30136SOL     OW92414   8.329   0.090  10.700
30136SOL    HW192415   8.365   0.073  10.610
30136SOL    HW292416   8.405   0.131  10.744
30137SOL     OW92417   8.146   1.056   9.657
30137SOL    HW192418   8.138   1.043   9.753
30137SOL    HW292419   8.224   1.000   9.636
30138SOL     OW92420   7.883   0.818  10.591
30138SOL    HW192421   7.956   0.815  10.656
30138SOL    HW292422   7.849   0.727  10.595
30139SOL     OW92423   8.704   0.365  10.600
30139SOL    HW192424   8.731   0.451  10.638
30139SOL    HW292425   8.629   0.392  10.545
30140SOL     OW92426   7.517   1.567  10.639
30140SOL    HW192427   7.504   1.656  10.605
30140SOL    HW292428   7.613   1.560  10.646
30141SOL     OW92429   7.821   1.114   9.801
30141SOL    HW192430   7.846   1.187   9.744
30141SOL    HW292431   7.813   1.040   9.738
30142SOL     OW92432   7.972   0.546  10.137
30142SOL    HW192433   8.000   0.614  10.072
30142SOL    HW292434   8.039   0.554  10.207
30143SOL     OW92435   8.681   1.324   9.702
30143SOL    HW192436   8.724   1.402   9.740
30143SOL    HW292437   8.591   1.335   9.735
30144SOL     OW92438   8.721   1.460  10.469
30144SOL    HW192439   8.772   1.447  10.551
30144SOL    HW292440   8.662   1.382  10.472
30145SOL     OW92441   9.038   0.623   9.785
30145SOL    HW192442   8.983   0.678   9.841
30145SOL    HW292443   9.069   0.685   9.717
30146SOL     OW92444   7.788   1.498  10.634
30146SOL    HW192445   7.775   1.473  10.540
30146SOL    HW292446   7.882   1.523  10.636
30147SOL     OW92447   7.892   0.707  10.929
30147SOL    HW192448   7.961   0.752  10.876
30147SOL    HW292449   7.909   0.614  10.908
30148SOL     OW92450   9.069   0.753  10.983
30148SOL    HW192451   9.007   0.819  11.012
30148SOL    HW292452   9.129   0.806  10.928
30149SOL     OW92453   8.027   0.880  10.362
30149SOL    HW192454   8.061   0.970  10.354
30149SOL    HW292455   7.979   0.881  10.447
30150SOL     OW92456   8.796   0.853  10.361
30150SOL    HW192457   8.727   0.826  10.299
30150SOL    HW292458   8.860   0.781  10.354
30151SOL     OW92459   8.672   0.515   9.570
30151SOL    HW192460   8.685   0.440   9.631
30151SOL    HW292461   8.612   0.572   9.621
30152SOL     OW92462   7.719   0.203  10.544
30152SOL    HW192463   7.694   0.239  10.631
30152SOL    HW292464   7.693   0.110  10.551
30153SOL     OW92465   7.499   1.281  10.589
30153SOL    HW192466   7.533   1.232  10.666
30153SOL    HW292467   7.486   1.370  10.623
30154SOL     OW92468   8.156   0.615  10.333
30154SOL    HW192469   8.243   0.609  10.292
30154SOL    HW292470   8.126   0.706  10.315
30155SOL     OW92471   7.738   0.023   9.928
30155SOL    HW192472   7.720   0.118   9.932
30155SOL    HW292473   7.743   0.002  10.023
30156SOL     OW92474   9.032   0.387   9.655
30156SOL    HW192475   9.069   0.321   9.715
30156SOL    HW292476   9.031   0.468   9.710
30157SOL     OW92477   8.502   0.767  10.266
30157SOL    HW192478   8.491   0.789  10.360
30157SOL    HW292479   8.478   0.672  10.263
30158SOL     OW92480   8.441   1.555  10.968
30158SOL    HW192481   8.428   1.618  10.895
30158SOL    HW292482   8.406   1.473  10.930
30159SOL     OW92483   9.295   1.492  10.901
30159SOL    HW192484   9.317   1.522  10.812
30159SOL    HW292485   9.376   1.511  10.951
30160SOL     OW92486   7.814   0.907  11.074
30160SOL    HW192487   7.891   0.920   0.031
30160SOL    HW292488   7.840   0.825  11.027
30161SOL     OW92489   8.951   0.262   9.427
30161SOL    HW192490   8.876   0.209   9.459
30161SOL    HW292491   8.983   0.308   9.507
30162SOL     OW92492   8.728   0.831   9.328
30162SOL    HW192493   8.781   0.749   9.337
30162SOL    HW292494   8.761   0.864   9.242
30163SOL     OW92495   8.514   1.362  10.164
30163SOL    HW192496   8.519   1.281  10.107
30163SOL    HW292497   8.578   1.422  10.124
30164SOL     OW92498   7.748   0.825  10.321
30164SOL    HW192499   7.845   0.834  10.314
30164SOL    HW292500   7.738   0.729  10.331
30165SOL     OW92501   7.767   0.539  10.308
30165SOL    HW192502   7.731   0.450  10.291
30165SOL    HW292503   7.835   0.545  10.237
30166SOL     OW92504   8.552   0.225  10.784
30166SOL    HW192505   8.594   0.273  10.856
30166SOL    HW292506   8.585   0.273  10.706
30167SOL     OW92507   7.446   1.328   9.513
30167SOL    HW192508   7.355   1.342   9.478
30167SOL    HW292509   7.444   1.235   9.541
30168SOL     OW92510   7.541   1.783  10.250
30168SOL    HW192511   7.508   1.709  10.195
30168SOL    HW292512   7.632   1.795  10.213
30169SOL     OW92513   7.940   1.588  10.241
30169SOL    HW192514   8.020   1.640  10.261
30169SOL    HW292515   7.975   1.519  10.182
30170SOL     OW92516   8.427   0.840  10.539
30170SOL    HW192517   8.492   0.796  10.598
30170SOL    HW292518   8.347   0.792  10.561
30171SOL     OW92519   7.484   0.514  10.431
30171SOL    HW192520   7.565   0.511  10.379
30171SOL    HW292521   7.516   0.529  10.521
30172SOL     OW92522   8.264   0.587   9.694
30172SOL    HW192523   8.275   0.509   9.638
30172SOL    HW292524   8.187   0.632   9.654
30173SOL     OW92525   9.100   0.618  10.483
30173SOL    HW192526   9.085   0.550  10.551
30173SOL    HW292527   9.189   0.591  10.450
30174SOL     OW92528   7.692   1.544  11.031
30174SOL    HW192529   7.638   1.573   0.006
30174SOL    HW292530   7.735   1.465  11.065
30175SOL     OW92531   8.143   0.470  10.563
30175SOL    HW192532   8.096   0.390  10.533
30175SOL    HW292533   8.132   0.530  10.487
30176SOL     OW92534   8.398   1.695  10.725
30176SOL    HW192535   8.357   1.647  10.651
30176SOL    HW292536   8.344   1.775  10.734
30177SOL     OW92537   7.899   0.481   9.505
30177SOL    HW192538   7.957   0.557   9.520
30177SOL    HW292539   7.812   0.526   9.496
30178SOL     OW92540   7.600   1.147  10.795
30178SOL    HW192541   7.592   1.092  10.876
30178SOL    HW292542   7.626   1.080  10.727
30179SOL     OW92543   8.747   1.061  10.537
30179SOL    HW192544   8.773   0.993  10.471
30179SOL    HW292545   8.675   1.109  10.492
30180SOL     OW92546   8.764   0.844   9.605
30180SOL    HW192547   8.679   0.820   9.644
30180SOL    HW292548   8.742   0.852   9.510
30181SOL     OW92549   9.206   1.750  10.434
30181SOL    HW192550   9.283   1.769  10.376
30181SOL    HW292551   9.200   1.652  10.426
30182SOL     OW92552   7.555   1.244  10.332
30182SOL    HW192553   7.531   1.258  10.426
30182SOL    HW292554   7.472   1.208  10.297
30183SOL     OW92555   9.138   0.114   9.802
30183SOL    HW192556   9.218   0.132   9.749
30183SOL    HW292557   9.171   0.055   9.871
30184SOL     OW92558   8.818   1.574   9.802
30184SOL    HW192559   8.874   1.594   9.725
30184SOL    HW292560   8.767   1.656   9.814
30185SOL     OW92561   8.719   0.925  10.004
30185SOL    HW192562   8.795   0.863  10.003
30185SOL    HW292563   8.750   0.995   9.944
30186SOL     OW92564   8.250   1.261  10.748
30186SOL    HW192565   8.226   1.300  10.835
30186SOL    HW292566   8.170   1.280  10.696
30187SOL     OW92567   9.069   1.714  10.678
30187SOL    HW192568   9.127   1.732  10.602
30187SOL    HW292569   9.066   1.799  10.724
30188SOL     OW92570   9.306   0.112  10.260
30188SOL    HW192571   9.339   0.063  10.183
30188SOL    HW292572   9.226   0.156  10.225
30189SOL     OW92573   7.690   0.293  10.003
30189SOL    HW192574   7.603   0.335   9.985
30189SOL    HW292575   7.695   0.300  10.100
30190SOL     OW92576   8.630   1.629   9.339
30190SOL    HW192577   8.640   1.533   9.353
30190SOL    HW292578   8.566   1.633   9.265
30191SOL     OW92579   8.249   0.993  10.697
30191SOL    HW192580   8.301   0.980  10.616
30191SOL    HW292581   8.262   1.088  10.716
30192SOL     OW92582   8.352   0.904   9.583
30192SOL    HW192583   8.425   0.940   9.529
30192SOL    HW292584   8.396   0.836   9.635
30193SOL     OW92585   9.007   1.630   9.347
30193SOL    HW192586   8.912   1.646   9.342
30193SOL    HW292587   9.032   1.632   9.253
30194SOL     OW92588   7.824   1.289  10.798
30194SOL    HW192589   7.802   1.362  10.737
30194SOL    HW292590   7.739   1.240  10.800
30195SOL     OW92591   9.057   1.290  10.575
30195SOL    HW192592   9.111   1.267  10.653
30195SOL    HW292593   8.997   1.357  10.611
30196SOL     OW92594   8.515   1.125  10.050
30196SOL    HW192595   8.434   1.074  10.071
30196SOL    HW292596   8.575   1.054  10.024
30197SOL     OW92597   8.488   0.237  10.278
30197SOL    HW192598   8.468   0.181  10.200
30197SOL    HW292599   8.476   0.174  10.350
30198SOL     OW92600   8.063   1.485   9.805
30198SOL    HW192601   8.111   1.438   9.735
30198SOL    HW292602   7.994   1.529   9.754
30199SOL     OW92603   9.152   0.399  10.677
30199SOL    HW192604   9.228   0.459  10.689
30199SOL    HW292605   9.188   0.337  10.611
30200SOL     OW92606   7.691   1.398   9.591
30200SOL    HW192607   7.595   1.380   9.579
30200SOL    HW292608   7.697   1.414   9.687
30201SOL     OW92609   7.583   1.025  11.023
30201SOL    HW192610   7.517   0.991  11.085
30201SOL    HW292611   7.666   0.983  11.055
30202SOL     OW92612   8.115   0.236  10.777
30202SOL    HW192613   8.194   0.189  10.744
30202SOL    HW292614   8.140   0.252  10.870
30203SOL     OW92615   7.516   0.350   9.333
30203SOL    HW192616   7.423   0.362   9.311
30203SOL    HW292617   7.556   0.423   9.283
30204SOL     OW92618   8.891   0.851  10.738
30204SOL    HW192619   8.835   0.914  10.692
30204SOL    HW292620   8.978   0.867  10.696
30205SOL     OW92621   7.486   0.165   9.618
30205SOL    HW192622   7.482   0.234   9.550
30205SOL    HW292623   7.575   0.129   9.606
30206SOL     OW92624   8.640   1.356   9.425
30206SOL    HW192625   8.544   1.341   9.429
30206SOL    HW292626   8.667   1.345   9.518
30207SOL     OW92627   8.087   0.799  10.769
30207SOL    HW192628   8.138   0.880  10.749
30207SOL    HW292629   8.157   0.733  10.775
30208SOL     OW92630   8.980   1.759  10.291
30208SOL    HW192631   9.005   1.802  10.208
30208SOL    HW292632   9.064   1.763  10.341
30209SOL     OW92633   8.153   0.592  11.018
30209SOL    HW192634   8.212   0.656  11.063
30209SOL    HW292635   8.186   0.506  11.047
30210SOL     OW92636   7.824   1.719  10.868
30210SOL    HW192637   7.749   1.779  10.853
30210SOL    HW292638   7.785   1.654  10.930
30211SOL     OW92639   9.107   0.894  10.569
30211SOL    HW192640   9.107   0.805  10.530
30211SOL    HW292641   9.091   0.951  10.492
30212SOL     OW92642   8.668   0.314   9.767
30212SOL    HW192643   8.725   0.235   9.763
30212SOL    HW292644   8.702   0.360   9.847
30213SOL     OW92645   8.038   0.749   9.960
30213SOL    HW192646   8.064   0.842   9.945
30213SOL    HW292647   7.968   0.735   9.894
30214SOL     OW92648   9.226   0.353  10.939
30214SOL    HW192649   9.185   0.371  10.853
30214SOL    HW292650   9.150   0.330  10.994
30215SOL     OW92651   9.203   0.939  10.818
30215SOL    HW192652   9.199   1.035  10.830
30215SOL    HW292653   9.181   0.927  10.723
30216SOL     OW92654   8.314   1.377   9.356
30216SOL    HW192655   8.257   1.409   9.428
30216SOL    HW292656   8.333   1.459   9.307
30217SOL     OW92657   8.131   1.800  10.267
30217SOL    HW192658   8.102   1.888  10.237
30217SOL    HW292659   8.208   1.782  10.212
30218SOL     OW92660   8.332   0.967  10.161
30218SOL    HW192661   8.380   0.887  10.188
30218SOL    HW292662   8.301   1.002  10.245
30219SOL     OW92663   8.542   0.995   9.412
30219SOL    HW192664   8.511   1.052   9.339
30219SOL    HW292665   8.600   0.934   9.364
30220SOL     OW92666   9.286   1.563  10.154
30220SOL    HW192667   9.209   1.536  10.104
30220SOL    HW292668   9.319   1.482  10.194
30221SOL     OW92669   7.533   1.264   9.983
30221SOL    HW192670   7.522   1.195  10.050
30221SOL    HW292671   7.613   1.235   9.938
30222SOL     OW92672   8.130   1.408  10.943
30222SOL    HW192673   8.064   1.346  10.981
30222SOL    HW292674   8.075   1.484  10.922
30223SOL     OW92675   9.238   0.190  10.524
30223SOL    HW192676   9.212   0.097  10.534
30223SOL    HW292677   9.269   0.193  10.433
30224SOL     OW92678   7.880   0.401   9.826
30224SOL    HW192679   7.908   0.322   9.777
30224SOL    HW292680   7.830   0.366   9.901
30225SOL     OW92681   9.173   1.490  10.422
30225SOL    HW192682   9.108   1.439  10.373
30225SOL    HW292683   9.185   1.433  10.500
30226SOL     OW92684   7.796   0.561  10.599
30226SOL    HW192685   7.853   0.502  10.651
30226SOL    HW292686   7.803   0.527  10.508
30227SOL     OW92687   8.277   1.586   9.986
30227SOL    HW192688   8.276   1.622   9.896
30227SOL    HW292689   8.191   1.541   9.990
30228SOL     OW92690   8.879   0.249  10.425
30228SOL    HW192691   8.916   0.177  10.477
30228SOL    HW292692   8.823   0.295  10.491
30229SOL     OW92693   8.443   0.011  10.465
30229SOL    HW192694   8.399  11.026  10.468
30229SOL    HW292695   8.538  11.086  10.471
30230SOL     OW92696   8.225   1.339   9.633
30230SOL    HW192697   8.184   1.253   9.617
30230SOL    HW292698   8.308   1.313   9.675
30231SOL     OW92699   8.057   1.554  10.619
30231SOL    HW192700   8.062   1.644  10.658
30231SOL    HW292701   8.131   1.556  10.556
30232SOL     OW92702   8.762   0.071   9.476
30232SOL    HW192703   8.769  11.094   9.420
30232SOL    HW292704   8.675   0.056   9.519
30233SOL     OW92705   8.729   0.458   9.986
30233SOL    HW192706   8.675   0.539   9.979
30233SOL    HW292707   8.718   0.432  10.079
30234SOL     OW92708   9.068   0.212  10.176
30234SOL    HW192709   8.995   0.220  10.240
30234SOL    HW292710   9.063   0.299  10.132
30235SOL     OW92711   7.499   1.074   9.622
30235SOL    HW192712   7.593   1.069   9.599
30235SOL    HW292713   7.479   0.981   9.641
30236SOL     OW92714   8.349   1.640   9.677
30236SOL    HW192715   8.278   1.636   9.609
30236SOL    HW292716   8.333   1.728   9.716
30237SOL     OW92717   7.679   2.513   0.154
30237SOL    HW192718   7.598   2.461   0.167
30237SOL    HW292719   7.708   2.488   0.066
30238SOL     OW92720   7.685   2.135   1.004
30238SOL    HW192721   7.704   2.116   1.098
30238SOL    HW292722   7.599   2.090   0.994
30239SOL     OW92723   7.450   2.253   0.637
30239SOL    HW192724   7.365   2.262   0.686
30239SOL    HW292725   7.432   2.174   0.584
30240SOL     OW92726   8.009   3.160   1.200
30240SOL    HW192727   7.916   3.155   1.173
30240SOL    HW292728   8.017   3.253   1.227
30241SOL     OW92729   8.991   3.386   0.709
30241SOL    HW192730   8.951   3.362   0.795
30241SOL    HW292731   8.916   3.383   0.647
30242SOL     OW92732   8.599   2.545   0.724
30242SOL    HW192733   8.620   2.633   0.690
30242SOL    HW292734   8.546   2.565   0.803
30243SOL     OW92735   9.224   2.457   0.225
30243SOL    HW192736   9.180   2.485   0.144
30243SOL    HW292737   9.178   2.375   0.247
30244SOL     OW92738   8.176   3.027   1.020
30244SOL    HW192739   8.116   3.069   1.084
30244SOL    HW292740   8.217   3.106   0.980
30245SOL     OW92741   8.324   2.619   1.797
30245SOL    HW192742   8.287   2.675   1.867
30245SOL    HW292743   8.346   2.683   1.727
30246SOL     OW92744   8.132   2.872   0.642
30246SOL    HW192745   8.196   2.857   0.713
30246SOL    HW292746   8.063   2.925   0.686
30247SOL     OW92747   8.201   2.991   1.767
30247SOL    HW192748   8.210   3.071   1.821
30247SOL    HW292749   8.130   2.943   1.815
30248SOL     OW92750   7.771   3.291   1.076
30248SOL    HW192751   7.695   3.252   1.029
30248SOL    HW292752   7.820   3.337   1.006
30249SOL     OW92753   8.916   3.342   1.376
30249SOL    HW192754   8.967   3.425   1.379
30249SOL    HW292755   8.855   3.354   1.451
30250SOL     OW92756   7.885   2.258   1.527
30250SOL    HW192757   7.958   2.195   1.523
30250SOL    HW292758   7.807   2.204   1.511
30251SOL     OW92759   7.675   3.585   0.489
30251SOL    HW192760   7.713   3.666   0.527
30251SOL    HW292761   7.726   3.577   0.407
30252SOL     OW92762   8.580   3.214   1.679
30252SOL    HW192763   8.616   3.206   1.769
30252SOL    HW292764   8.536   3.127   1.671
30253SOL     OW92765   7.692   3.287   0.522
30253SOL    HW192766   7.691   3.382   0.540
30253SOL    HW292767   7.629   3.253   0.588
30254SOL     OW92768   7.710   2.945   0.897
30254SOL    HW192769   7.725   2.868   0.955
30254SOL    HW292770   7.660   3.005   0.956
30255SOL     OW92771   8.046   3.656   1.414
30255SOL    HW192772   7.972   3.631   1.472
30255SOL    HW292773   8.070   3.746   1.444
30256SOL     OW92774   8.031   2.862   0.140
30256SOL    HW192775   8.083   2.916   0.080
30256SOL    HW292776   8.069   2.888   0.226
30257SOL     OW92777   9.061   1.970   1.492
30257SOL    HW192778   9.047   2.056   1.451
30257SOL    HW292779   9.063   1.990   1.586
30258SOL     OW92780   9.293   3.601   0.362
30258SOL    HW192781   9.355   3.579   0.434
30258SOL    HW292782   9.318   3.693   0.342
30259SOL     OW92783   7.440   3.457   0.115
30259SOL    HW192784   7.458   3.369   0.150
30259SOL    HW292785   7.451   3.514   0.193
30260SOL     OW92786   9.129   2.757   0.586
30260SOL    HW192787   9.223   2.740   0.577
30260SOL    HW292788   9.114   2.828   0.521
30261SOL     OW92789   9.076   2.988   0.433
30261SOL    HW192790   9.154   3.005   0.379
30261SOL    HW292791   9.091   3.047   0.510
30262SOL     OW92792   7.574   2.609   1.576
30262SOL    HW192793   7.668   2.631   1.572
30262SOL    HW292794   7.540   2.687   1.624
30263SOL     OW92795   8.041   3.262   0.748
30263SOL    HW192796   8.002   3.172   0.751
30263SOL    HW292797   8.034   3.281   0.652
30264SOL     OW92798   8.730   3.091   1.427
30264SOL    HW192799   8.760   3.015   1.374
30264SOL    HW292800   8.783   3.081   1.509
30265SOL     OW92801   8.288   1.859   0.485
30265SOL    HW192802   8.314   1.953   0.481
30265SOL    HW292803   8.192   1.865   0.497
30266SOL     OW92804   7.622   2.843   1.257
30266SOL    HW192805   7.713   2.812   1.251
30266SOL    HW292806   7.570   2.767   1.226
30267SOL     OW92807   8.989   2.838   0.205
30267SOL    HW192808   8.914   2.788   0.240
30267SOL    HW292809   9.022   2.884   0.283
30268SOL     OW92810   8.618   3.668   1.608
30268SOL    HW192811   8.642   3.709   1.524
30268SOL    HW292812   8.640   3.575   1.589
30269SOL     OW92813   7.777   2.087   1.796
30269SOL    HW192814   7.822   2.164   1.832
30269SOL    HW292815   7.684   2.108   1.819
30270SOL     OW92816   8.917   3.294   0.963
30270SOL    HW192817   8.853   3.310   1.035
30270SOL    HW292818   8.890   3.206   0.931
30271SOL     OW92819   9.109   3.602   0.601
30271SOL    HW192820   9.110   3.566   0.511
30271SOL    HW292821   9.074   3.526   0.650
30272SOL     OW92822   8.037   2.570   0.258
30272SOL    HW192823   8.051   2.657   0.219
30272SOL    HW292824   7.983   2.588   0.338
30273SOL     OW92825   8.717   2.188   0.911
30273SOL    HW192826   8.627   2.160   0.936
30273SOL    HW292827   8.770   2.149   0.985
30274SOL     OW92828   9.019   3.514   0.322
30274SOL    HW192829   9.112   3.538   0.316
30274SOL    HW292830   8.999   3.495   0.228
30275SOL     OW92831   8.256   2.480   1.460
30275SOL    HW192832   8.233   2.443   1.549
30275SOL    HW292833   8.204   2.423   1.401
30276SOL     OW92834   8.843   2.347   1.664
30276SOL    HW192835   8.843   2.404   1.742
30276SOL    HW292836   8.901   2.273   1.691
30277SOL     OW92837   8.429   2.746   1.573
30277SOL    HW192838   8.461   2.661   1.535
30277SOL    HW292839   8.376   2.782   1.499
30278SOL     OW92840   8.427   2.268   1.244
30278SOL    HW192841   8.339   2.276   1.282
30278SOL    HW292842   8.413   2.216   1.164
30279SOL     OW92843   8.485   2.542   0.407
30279SOL    HW192844   8.490   2.565   0.501
30279SOL    HW292845   8.402   2.490   0.404
30280SOL     OW92846   7.575   2.673   0.767
30280SOL    HW192847   7.644   2.680   0.837
30280SOL    HW292848   7.522   2.752   0.786
30281SOL     OW92849   7.555   3.716   1.568
30281SOL    HW192850   7.570   3.693   1.662
30281SOL    HW292851   7.471   3.672   1.551
30282SOL     OW92852   8.334   2.247   0.204
30282SOL    HW192853   8.387   2.294   0.137
30282SOL    HW292854   8.345   2.154   0.177
30283SOL     OW92855   9.186   2.460   1.829
30283SOL    HW192856   9.140   2.530   1.778
30283SOL    HW292857   9.207   2.396   1.759
30284SOL     OW92858   8.807   3.015   0.572
30284SOL    HW192859   8.887   3.002   0.519
30284SOL    HW292860   8.758   3.078   0.516
30285SOL     OW92861   7.998   2.067   0.899
30285SOL    HW192862   8.009   2.078   0.995
30285SOL    HW292863   7.987   2.158   0.867
30286SOL     OW92864   8.439   3.286   0.489
30286SOL    HW192865   8.407   3.359   0.430
30286SOL    HW292866   8.452   3.332   0.573
30287SOL     OW92867   7.797   3.669   0.873
30287SOL    HW192868   7.834   3.579   0.881
30287SOL    HW292869   7.879   3.721   0.879
30288SOL     OW92870   9.265   2.910   0.887
30288SOL    HW192871   9.210   2.920   0.808
30288SOL    HW292872   9.199   2.898   0.958
30289SOL     OW92873   8.672   3.418   1.507
30289SOL    HW192874   8.648   3.351   1.575
30289SOL    HW292875   8.635   3.376   1.428
30290SOL     OW92876   7.766   2.813   0.274
30290SOL    HW192877   7.850   2.821   0.227
30290SOL    HW292878   7.729   2.731   0.238
30291SOL     OW92879   8.933   2.604   0.701
30291SOL    HW192880   8.909   2.624   0.794
30291SOL    HW292881   9.004   2.669   0.681
30292SOL     OW92882   7.908   3.151   1.721
30292SOL    HW192883   7.857   3.150   1.638
30292SOL    HW292884   7.850   3.103   1.781
30293SOL     OW92885   8.536   3.623   0.208
30293SOL    HW192886   8.491   3.564   0.271
30293SOL    HW292887   8.567   3.561   0.140
30294SOL     OW92888   7.622   2.153   1.502
30294SOL    HW192889   7.546   2.207   1.529
30294SOL    HW292890   7.601   2.067   1.542
30295SOL     OW92891   9.075   3.201   0.093
30295SOL    HW192892   9.032   3.285   0.070
30295SOL    HW292893   9.019   3.135   0.047
30296SOL     OW92894   7.906   3.600   0.306
30296SOL    HW192895   7.951   3.645   0.380
30296SOL    HW292896   7.979   3.591   0.243
30297SOL     OW92897   8.843   1.986   0.443
30297SOL    HW192898   8.842   1.933   0.362
30297SOL    HW292899   8.938   1.995   0.461
30298SOL     OW92900   7.699   3.655   1.228
30298SOL    HW192901   7.750   3.588   1.276
30298SOL    HW292902   7.687   3.613   1.142
30299SOL     OW92903   8.406   3.559   0.877
30299SOL    HW192904   8.488   3.510   0.890
30299SOL    HW292905   8.363   3.507   0.806
30300SOL     OW92906   7.873   2.553   0.475
30300SOL    HW192907   7.877   2.454   0.483
30300SOL    HW292908   7.784   2.572   0.506
30301SOL     OW92909   8.983   2.125   1.724
30301SOL    HW192910   8.980   2.122   1.823
30301SOL    HW292911   8.930   2.047   1.703
30302SOL     OW92912   8.068   1.979   0.109
30302SOL    HW192913   8.158   1.950   0.132
30302SOL    HW292914   8.053   1.943   0.021
30303SOL     OW92915   8.224   2.115   1.734
30303SOL    HW192916   8.303   2.058   1.745
30303SOL    HW292917   8.172   2.093   1.814
30304SOL     OW92918   8.342   3.418   1.196
30304SOL    HW192919   8.332   3.380   1.107
30304SOL    HW292920   8.400   3.354   1.240
30305SOL     OW92921   8.790   2.446   1.420
30305SOL    HW192922   8.825   2.417   1.507
30305SOL    HW292923   8.832   2.533   1.406
30306SOL     OW92924   8.252   3.277   0.932
30306SOL    HW192925   8.339   3.266   0.888
30306SOL    HW292926   8.189   3.270   0.859
30307SOL     OW92927   8.393   2.375   0.905
30307SOL    HW192928   8.371   2.357   0.810
30307SOL    HW292929   8.419   2.287   0.935
30308SOL     OW92930   8.019   1.908   0.500
30308SOL    HW192931   7.942   1.922   0.559
30308SOL    HW292932   8.009   1.986   0.441
30309SOL     OW92933   8.886   3.024   0.007
30309SOL    HW192934   8.922   2.959   0.071
30309SOL    HW292935   8.810   3.060   0.055
30310SOL     OW92936   7.724   1.927   0.220
30310SOL    HW192937   7.760   1.971   0.141
30310SOL    HW292938   7.795   1.863   0.240
30311SOL     OW92939   8.378   2.117   0.468
30311SOL    HW192940   8.363   2.167   0.387
30311SOL    HW292941   8.474   2.129   0.479
30312SOL     OW92942   8.542   2.530   1.459
30312SOL    HW192943   8.484   2.454   1.473
30312SOL    HW292944   8.631   2.491   1.456
30313SOL     OW92945   8.691   3.446   0.779
30313SOL    HW192946   8.691   3.511   0.707
30313SOL    HW292947   8.760   3.478   0.837
30314SOL     OW92948   7.918   3.019   0.735
30314SOL    HW192949   7.849   2.991   0.798
30314SOL    HW292950   7.876   2.998   0.650
30315SOL     OW92951   8.717   3.671   0.615
30315SOL    HW192952   8.765   3.734   0.558
30315SOL    HW292953   8.684   3.730   0.684
30316SOL     OW92954   8.482   2.391   0.022
30316SOL    HW192955   8.439   2.478   0.016
30316SOL    HW292956   8.570   2.413   0.053
30317SOL     OW92957   7.504   2.427   1.392
30317SOL    HW192958   7.598   2.411   1.378
30317SOL    HW292959   7.507   2.503   1.455
30318SOL     OW92960   8.017   2.093   1.168
30318SOL    HW192961   8.059   2.021   1.218
30318SOL    HW292962   7.925   2.085   1.200
30319SOL     OW92963   8.331   2.309   0.654
30319SOL    HW192964   8.281   2.365   0.594
30319SOL    HW292965   8.342   2.229   0.601
30320SOL     OW92966   8.460   1.942   0.772
30320SOL    HW192967   8.414   1.933   0.687
30320SOL    HW292968   8.439   1.857   0.816
30321SOL     OW92969   8.871   3.048   0.872
30321SOL    HW192970   8.791   2.994   0.876
30321SOL    HW292971   8.888   3.047   0.777
30322SOL     OW92972   8.960   2.397   0.957
30322SOL    HW192973   8.888   2.347   0.999
30322SOL    HW292974   9.010   2.431   1.034
30323SOL     OW92975   9.317   2.692   0.354
30323SOL    HW192976   9.355   2.639   0.425
30323SOL    HW292977   9.281   2.623   0.296
30324SOL     OW92978   7.936   3.310   0.144
30324SOL    HW192979   7.860   3.278   0.196
30324SOL    HW292980   7.934   3.251   0.066
30325SOL     OW92981   9.130   3.136   0.664
30325SOL    HW192982   9.227   3.146   0.665
30325SOL    HW292983   9.097   3.227   0.677
30326SOL     OW92984   8.838   2.463   0.086
30326SOL    HW192985   8.790   2.427   0.165
30326SOL    HW292986   8.891   2.387   0.060
30327SOL     OW92987   7.967   2.097   0.323
30327SOL    HW192988   7.998   2.046   0.245
30327SOL    HW292989   7.938   2.178   0.278
30328SOL     OW92990   9.181   3.094   1.576
30328SOL    HW192991   9.271   3.057   1.577
30328SOL    HW292992   9.200   3.188   1.590
30329SOL     OW92993   8.511   3.235   1.349
30329SOL    HW192994   8.431   3.193   1.387
30329SOL    HW292995   8.581   3.177   1.386
30330SOL     OW92996   9.066   3.472   1.640
30330SOL    HW192997   9.067   3.505   1.548
30330SOL    HW292998   9.144   3.415   1.641
30331SOL     OW92999   8.577   3.094   1.099
30331SOL    HW193000   8.505   3.105   1.162
30331SOL    HW293001   8.539   3.130   1.017
30332SOL     OW93002   9.037   2.947   1.074
30332SOL    HW193003   9.052   3.015   1.144
30332SOL    HW293004   8.995   3.002   1.005
30333SOL     OW93005   8.357   1.973   1.400
30333SOL    HW193006   8.390   1.944   1.313
30333SOL    HW293007   8.439   2.010   1.440
30334SOL     OW93008   8.460   2.975   1.732
30334SOL    HW193009   8.366   2.994   1.752
30334SOL    HW293010   8.451   2.895   1.676
30335SOL     OW93011   8.173   2.931   0.375
30335SOL    HW193012   8.165   2.909   0.470
30335SOL    HW293013   8.242   2.870   0.343
30336SOL     OW93014   7.869   2.676   1.260
30336SOL    HW193015   7.942   2.672   1.325
30336SOL    HW293016   7.828   2.589   1.270
30337SOL     OW93017   8.730   2.251   1.254
30337SOL    HW193018   8.750   2.325   1.314
30337SOL    HW293019   8.636   2.264   1.234
30338SOL     OW93020   7.525   3.444   1.339
30338SOL    HW193021   7.532   3.535   1.308
30338SOL    HW293022   7.618   3.413   1.337
30339SOL     OW93023   7.797   2.971   0.499
30339SOL    HW193024   7.805   3.045   0.438
30339SOL    HW293025   7.793   2.895   0.439
30340SOL     OW93026   7.980   2.399   0.858
30340SOL    HW193027   8.014   2.466   0.794
30340SOL    HW293028   8.043   2.412   0.932
30341SOL     OW93029   8.676   3.191   0.403
30341SOL    HW193030   8.721   3.273   0.429
30341SOL    HW293031   8.583   3.212   0.427
30342SOL     OW93032   8.741   3.328   1.165
30342SOL    HW193033   8.797   3.321   1.245
30342SOL    HW293034   8.686   3.248   1.171
30343SOL     OW93035   9.027   2.463   0.491
30343SOL    HW193036   8.972   2.531   0.535
30343SOL    HW293037   9.064   2.517   0.419
30344SOL     OW93038   7.785   3.384   1.316
30344SOL    HW193039   7.777   3.339   1.228
30344SOL    HW293040   7.881   3.403   1.316
30345SOL     OW93041   7.887   2.589   1.621
30345SOL    HW193042   7.947   2.635   1.559
30345SOL    HW293043   7.923   2.500   1.622
30346SOL     OW93044   9.078   2.644   1.672
30346SOL    HW193045   8.987   2.678   1.679
30346SOL    HW293046   9.112   2.699   1.598
30347SOL     OW93047   8.457   1.974   1.771
30347SOL    HW193048   8.517   2.048   1.755
30347SOL    HW293049   8.502   1.903   1.721
30348SOL     OW93050   7.950   1.882   1.754
30348SOL    HW193051   7.906   1.823   1.690
30348SOL    HW293052   7.885   1.955   1.760
30349SOL     OW93053   8.043   2.767   1.051
30349SOL    HW193054   8.070   2.860   1.049
30349SOL    HW293055   7.990   2.760   1.132
30350SOL     OW93056   8.831   2.684   0.954
30350SOL    HW193057   8.737   2.684   0.974
30350SOL    HW293058   8.867   2.633   1.027
30351SOL     OW93059   8.679   2.370   0.282
30351SOL    HW193060   8.678   2.296   0.346
30351SOL    HW293061   8.614   2.431   0.322
30352SOL     OW93062   7.759   2.062   1.253
30352SOL    HW193063   7.709   2.087   1.333
30352SOL    HW293064   7.733   1.968   1.244
30353SOL     OW93065   7.485   3.171   1.285
30353SOL    HW193066   7.501   3.112   1.362
30353SOL    HW293067   7.485   3.259   1.324
30354SOL     OW93068   8.157   2.498   1.036
30354SOL    HW193069   8.243   2.482   0.992
30354SOL    HW293070   8.142   2.594   1.025
30355SOL     OW93071   9.212   2.807   1.842
30355SOL    HW193072   9.162   2.749   1.782
30355SOL    HW293073   9.148   2.819   1.914
30356SOL     OW93074   7.776   1.935   0.618
30356SOL    HW193075   7.744   2.021   0.650
30356SOL    HW293076   7.773   1.881   0.699
30357SOL     OW93077   9.062   2.245   0.332
30357SOL    HW193078   9.090   2.171   0.388
30357SOL    HW293079   9.046   2.317   0.396
30358SOL     OW93080   8.504   2.617   0.987
30358SOL    HW193081   8.476   2.624   1.080
30358SOL    HW293082   8.477   2.526   0.966
30359SOL     OW93083   8.420   3.433   1.696
30359SOL    HW193084   8.402   3.470   1.607
30359SOL    HW293085   8.448   3.342   1.675
30360SOL     OW93086   9.300   3.346   1.610
30360SOL    HW193087   9.321   3.372   1.518
30360SOL    HW293088   9.379   3.379   1.657
30361SOL     OW93089   7.782   2.768   1.792
30361SOL    HW193090   7.858   2.798   1.847
30361SOL    HW293091   7.821   2.693   1.744
30362SOL     OW93092   8.961   2.131   0.105
30362SOL    HW193093   8.903   2.066   0.146
30362SOL    HW293094   9.008   2.167   0.183
30363SOL     OW93095   8.745   2.710   0.023
30363SOL    HW193096   8.789   2.623   0.041
30363SOL    HW293097   8.791   2.740  11.046
30364SOL     OW93098   8.513   3.225   0.845
30364SOL    HW193099   8.525   3.145   0.790
30364SOL    HW293100   8.584   3.284   0.815
30365SOL     OW93101   7.753   2.675   0.982
30365SOL    HW193102   7.849   2.683   0.979
30365SOL    HW293103   7.743   2.588   1.023
30366SOL     OW93104   7.754   2.395   0.996
30366SOL    HW193105   7.739   2.298   0.992
30366SOL    HW293106   7.830   2.405   0.934
30367SOL     OW93107   8.603   2.230   1.699
30367SOL    HW193108   8.559   2.288   1.764
30367SOL    HW293109   8.689   2.275   1.689
30368SOL     OW93110   8.605   2.066   1.478
30368SOL    HW193111   8.610   2.128   1.553
30368SOL    HW293112   8.658   2.111   1.410
30369SOL     OW93113   7.414   3.203   0.224
30369SOL    HW193114   7.323   3.191   0.254
30369SOL    HW293115   7.447   3.110   0.223
30370SOL     OW93116   7.537   3.643   0.934
30370SOL    HW193117   7.507   3.572   0.873
30370SOL    HW293118   7.632   3.649   0.911
30371SOL     OW93119   7.934   3.443   0.916
30371SOL    HW193120   8.012   3.495   0.941
30371SOL    HW293121   7.972   3.376   0.855
30372SOL     OW93122   8.415   2.628   1.242
30372SOL    HW193123   8.473   2.593   1.312
30372SOL    HW293124   8.328   2.605   1.277
30373SOL     OW93125   7.496   2.410   1.103
30373SOL    HW193126   7.583   2.388   1.067
30373SOL    HW293127   7.511   2.408   1.198
30374SOL     OW93128   7.661   2.374   1.711
30374SOL    HW193129   7.722   2.334   1.648
30374SOL    HW293130   7.623   2.449   1.661
30375SOL     OW93131   8.838   2.778   1.656
30375SOL    HW193132   8.848   2.875   1.649
30375SOL    HW293133   8.790   2.756   1.575
30376SOL     OW93134   8.237   2.429   0.383
30376SOL    HW193135   8.267   2.364   0.317
30376SOL    HW293136   8.166   2.475   0.335
30377SOL     OW93137   9.088   2.483   1.188
30377SOL    HW193138   9.063   2.429   1.264
30377SOL    HW293139   9.176   2.447   1.165
30378SOL     OW93140   7.696   3.402   1.712
30378SOL    HW193141   7.686   3.456   1.792
30378SOL    HW293142   7.709   3.314   1.751
30379SOL     OW93143   8.123   2.341   1.263
30379SOL    HW193144   8.079   2.263   1.227
30379SOL    HW293145   8.127   2.402   1.187
30380SOL     OW93146   8.357   3.550   1.460
30380SOL    HW193147   8.348   3.517   1.369
30380SOL    HW293148   8.368   3.646   1.447
30381SOL     OW93149   7.901   2.331   0.204
30381SOL    HW193150   7.962   2.407   0.204
30381SOL    HW293151   7.815   2.376   0.212
30382SOL     OW93152   7.550   2.991   1.472
30382SOL    HW193153   7.562   2.934   1.551
30382SOL    HW293154   7.579   2.932   1.399
30383SOL     OW93155   8.758   2.907   1.228
30383SOL    HW193156   8.816   2.897   1.152
30383SOL    HW293157   8.692   2.970   1.196
30384SOL     OW93158   8.757   2.717   0.310
30384SOL    HW193159   8.671   2.688   0.341
30384SOL    HW293160   8.746   2.717   0.213
30385SOL     OW93161   9.207   3.612   1.128
30385SOL    HW193162   9.275   3.637   1.063
30385SOL    HW293163   9.202   3.515   1.114
30386SOL     OW93164   8.692   3.591   1.113
30386SOL    HW193165   8.780   3.611   1.077
30386SOL    HW293166   8.696   3.495   1.130
30387SOL     OW93167   7.553   3.119   1.036
30387SOL    HW193168   7.523   3.138   1.128
30387SOL    HW293169   7.479   3.069   1.001
30388SOL     OW93170   8.138   3.507   1.749
30388SOL    HW193171   8.099   3.582   1.704
30388SOL    HW293172   8.216   3.486   1.695
30389SOL     OW93173   8.356   1.979   0.141
30389SOL    HW193174   8.405   1.939   0.068
30389SOL    HW293175   8.395   1.929   0.214
30390SOL     OW93176   9.122   2.005   0.494
30390SOL    HW193177   9.206   1.998   0.446
30390SOL    HW293178   9.122   1.922   0.545
30391SOL     OW93179   8.806   3.425   0.481
30391SOL    HW193180   8.878   3.439   0.416
30391SOL    HW293181   8.774   3.516   0.493
30392SOL     OW93182   7.604   3.659   1.826
30392SOL    HW193183   7.561   3.583   1.871
30392SOL    HW293184   7.647   3.700   1.903
30393SOL     OW93185   8.703   2.773   0.621
30393SOL    HW193186   8.788   2.732   0.641
30393SOL    HW293187   8.732   2.860   0.588
30394SOL     OW93188   8.249   3.122   1.417
30394SOL    HW193189   8.224   3.165   1.502
30394SOL    HW293190   8.168   3.134   1.366
30395SOL     OW93191   8.134   3.485   0.164
30395SOL    HW193192   8.147   3.487   0.069
30395SOL    HW293193   8.067   3.414   0.173
30396SOL     OW93194   9.065   3.567   1.379
30396SOL    HW193195   9.117   3.586   1.299
30396SOL    HW293196   9.054   3.656   1.418
30397SOL     OW93197   9.298   2.026   0.960
30397SOL    HW193198   9.313   1.933   0.936
30397SOL    HW293199   9.211   2.046   0.923
30398SOL     OW93200   7.695   2.177   0.723
30398SOL    HW193201   7.599   2.187   0.711
30398SOL    HW293202   7.705   2.173   0.820
30399SOL     OW93203   8.659   3.461   0.030
30399SOL    HW193204   8.662   3.367   0.055
30399SOL    HW293205   8.592   3.461  11.060
30400SOL     OW93206   8.264   2.855   1.387
30400SOL    HW193207   8.293   2.866   1.296
30400SOL    HW293208   8.257   2.947   1.418
30401SOL     OW93209   8.349   2.766   0.257
30401SOL    HW193210   8.422   2.812   0.210
30401SOL    HW293211   8.396   2.692   0.298
30402SOL     OW93212   8.958   3.457   0.049
30402SOL    HW193213   8.863   3.475   0.046
30402SOL    HW293214   8.986   3.475  11.059
30403SOL     OW93215   7.779   3.138   1.485
30403SOL    HW193216   7.777   3.198   1.410
30403SOL    HW293217   7.696   3.088   1.476
30404SOL     OW93218   9.048   3.149   1.252
30404SOL    HW193219   9.113   3.136   1.322
30404SOL    HW293220   8.987   3.213   1.294
30405SOL     OW93221   8.504   2.972   0.733
30405SOL    HW193222   8.419   2.928   0.750
30405SOL    HW293223   8.556   2.903   0.688
30406SOL     OW93224   8.477   2.095   0.987
30406SOL    HW193225   8.462   2.050   0.901
30406SOL    HW293226   8.475   2.019   1.048
30407SOL     OW93227   8.056   3.344   0.484
30407SOL    HW193228   8.108   3.299   0.414
30407SOL    HW293229   7.985   3.384   0.433
30408SOL     OW93230   9.152   2.239   1.383
30408SOL    HW193231   9.218   2.312   1.379
30408SOL    HW293232   9.197   2.170   1.330
30409SOL     OW93233   7.686   3.231   0.265
30409SOL    HW193234   7.590   3.231   0.249
30409SOL    HW293235   7.690   3.253   0.360
30410SOL     OW93236   7.558   2.856   1.698
30410SOL    HW193237   7.491   2.849   1.769
30410SOL    HW293238   7.642   2.832   1.744
30411SOL     OW93239   8.119   2.052   1.485
30411SOL    HW193240   8.204   2.023   1.446
30411SOL    HW293241   8.148   2.087   1.571
30412SOL     OW93242   7.560   2.232   0.022
30412SOL    HW193243   7.487   2.180  11.088
30412SOL    HW293244   7.546   2.316  11.078
30413SOL     OW93245   8.883   2.704   1.365
30413SOL    HW193246   8.837   2.774   1.315
30413SOL    HW293247   8.973   2.739   1.370
30414SOL     OW93248   7.503   2.032   0.324
30414SOL    HW193249   7.502   2.105   0.260
30414SOL    HW293250   7.590   1.992   0.304
30415SOL     OW93251   8.631   3.209   0.127
30415SOL    HW193252   8.536   3.196   0.111
30415SOL    HW293253   8.641   3.183   0.220
30416SOL     OW93254   8.073   2.667   1.423
30416SOL    HW193255   8.128   2.747   1.429
30416SOL    HW293256   8.141   2.599   1.440
30417SOL     OW93257   8.956   3.651   0.961
30417SOL    HW193258   8.992   3.690   0.881
30417SOL    HW293259   9.035   3.623   1.009
30418SOL     OW93260   8.178   2.393   1.691
30418SOL    HW193261   8.210   2.459   1.756
30418SOL    HW293262   8.190   2.308   1.735
30419SOL     OW93263   8.904   3.053   1.635
30419SOL    HW193264   8.898   3.055   1.733
30419SOL    HW293265   8.999   3.067   1.621
30420SOL     OW93266   7.821   3.596   1.567
30420SOL    HW193267   7.731   3.631   1.556
30420SOL    HW293268   7.800   3.508   1.605
30421SOL     OW93269   9.159   2.749   1.234
30421SOL    HW193270   9.140   2.657   1.205
30421SOL    HW293271   9.114   2.804   1.168
30422SOL     OW93272   8.656   2.182   0.479
30422SOL    HW193273   8.720   2.110   0.459
30422SOL    HW293274   8.698   2.227   0.553
30423SOL     OW93275   8.051   2.604   0.687
30423SOL    HW193276   8.082   2.695   0.671
30423SOL    HW293277   7.999   2.586   0.607
30424SOL     OW93278   9.217   2.235   1.644
30424SOL    HW193279   9.186   2.242   1.552
30424SOL    HW293280   9.141   2.189   1.685
30425SOL     OW93281   9.181   2.807   1.493
30425SOL    HW193282   9.190   2.903   1.497
30425SOL    HW293283   9.196   2.786   1.398
30426SOL     OW93284   8.354   3.215   0.054
30426SOL    HW193285   8.264   3.212   0.090
30426SOL    HW293286   8.352   3.295  11.100
30427SOL     OW93287   8.113   3.652   0.928
30427SOL    HW193288   8.113   3.747   0.915
30427SOL    HW293289   8.207   3.629   0.924
30428SOL     OW93290   8.314   2.805   0.847
30428SOL    HW193291   8.369   2.740   0.892
30428SOL    HW293292   8.294   2.868   0.917
30429SOL     OW93293   8.537   2.863   0.102
30429SOL    HW193294   8.526   2.922   0.026
30429SOL    HW293295   8.610   2.806   0.072
30430SOL     OW93296   9.299   3.418   0.821
30430SOL    HW193297   9.205   3.411   0.801
30430SOL    HW293298   9.312   3.355   0.893
30431SOL     OW93299   7.655   3.174   1.857
30431SOL    HW193300   7.597   3.098   1.846
30431SOL    HW293301   7.653   3.188   1.953
30432SOL     OW93302   7.550   3.098   0.664
30432SOL    HW193303   7.570   3.057   0.749
30432SOL    HW293304   7.620   3.062   0.608
30433SOL     OW93305   8.127   3.261   1.617
30433SOL    HW193306   8.066   3.191   1.647
30433SOL    HW293307   8.099   3.335   1.674
30434SOL     OW93308   9.271   2.036   1.232
30434SOL    HW193309   9.281   1.942   1.251
30434SOL    HW293310   9.284   2.037   1.135
30435SOL     OW93311   7.871   2.291   0.519
30435SOL    HW193312   7.918   2.223   0.467
30435SOL    HW293313   7.836   2.241   0.594
30436SOL     OW93314   9.168   3.354   1.079
30436SOL    HW193315   9.084   3.330   1.037
30436SOL    HW293316   9.167   3.295   1.156
30437SOL     OW93317   7.783   2.393   1.282
30437SOL    HW193318   7.858   2.363   1.336
30437SOL    HW293319   7.802   2.355   1.194
30438SOL     OW93320   8.270   3.448   0.671
30438SOL    HW193321   8.263   3.448   0.575
30438SOL    HW293322   8.186   3.409   0.698
30439SOL     OW93323   8.879   2.093   1.094
30439SOL    HW193324   8.916   2.021   1.146
30439SOL    HW293325   8.832   2.145   1.162
30440SOL     OW93326   8.466   1.867   1.153
30440SOL    HW193327   8.409   1.792   1.131
30440SOL    HW293328   8.554   1.824   1.151
30441SOL     OW93329   8.214   3.201   0.326
30441SOL    HW193330   8.181   3.109   0.331
30441SOL    HW293331   8.301   3.191   0.368
30442SOL     OW93332   8.045   3.427   1.262
30442SOL    HW193333   8.051   3.507   1.319
30442SOL    HW293334   8.138   3.416   1.239
30443SOL     OW93335   8.774   1.890   0.165
30443SOL    HW193336   8.790   1.842   0.083
30443SOL    HW293337   8.688   1.853   0.194
30444SOL     OW93338   8.772   2.340   0.706
30444SOL    HW193339   8.706   2.412   0.702
30444SOL    HW293340   8.740   2.291   0.786
30445SOL     OW93341   9.035   2.085   0.860
30445SOL    HW193342   9.008   2.043   0.943
30445SOL    HW293343   8.950   2.120   0.831
30446SOL     OW93344   7.501   2.957   0.262
30446SOL    HW193345   7.597   2.954   0.275
30446SOL    HW293346   7.476   2.866   0.286
30447SOL     OW93347   8.340   3.499   0.357
30447SOL    HW193348   8.263   3.483   0.300
30447SOL    HW293349   8.319   3.587   0.396
30448SOL     OW93350   7.684   2.497   1.992
30448SOL    HW193351   7.590   2.501   2.015
30448SOL    HW293352   7.686   2.484   1.896
30449SOL     OW93353   7.670   2.146   2.859
30449SOL    HW193354   7.694   2.125   2.951
30449SOL    HW293355   7.582   2.103   2.852
30450SOL     OW93356   7.453   2.270   2.496
30450SOL    HW193357   7.368   2.291   2.540
30450SOL    HW293358   7.433   2.184   2.457
30451SOL     OW93359   8.014   3.149   3.054
30451SOL    HW193360   7.927   3.154   3.012
30451SOL    HW293361   8.025   3.239   3.089
30452SOL     OW93362   9.003   3.387   2.582
30452SOL    HW193363   8.970   3.358   2.671
30452SOL    HW293364   8.926   3.372   2.525
30453SOL     OW93365   8.575   2.544   2.567
30453SOL    HW193366   8.606   2.632   2.538
30453SOL    HW293367   8.546   2.562   2.658
30454SOL     OW93368   9.225   2.468   2.095
30454SOL    HW193369   9.206   2.463   1.999
30454SOL    HW293370   9.169   2.397   2.130
30455SOL     OW93371   8.210   3.028   2.920
30455SOL    HW193372   8.132   3.065   2.967
30455SOL    HW293373   8.230   3.100   2.858
30456SOL     OW93374   8.290   2.723   3.683
30456SOL    HW193375   8.361   2.737   3.746
30456SOL    HW293376   8.336   2.725   3.597
30457SOL     OW93377   8.137   2.887   2.523
30457SOL    HW193378   8.199   2.860   2.593
30457SOL    HW293379   8.069   2.937   2.572
30458SOL     OW93380   8.135   3.024   3.662
30458SOL    HW193381   8.183   3.109   3.670
30458SOL    HW293382   8.051   3.053   3.620
30459SOL     OW93383   7.767   3.291   2.924
30459SOL    HW193384   7.699   3.243   2.874
30459SOL    HW293385   7.817   3.340   2.856
30460SOL     OW93386   8.922   3.364   3.232
30460SOL    HW193387   8.980   3.441   3.252
30460SOL    HW293388   8.861   3.366   3.306
30461SOL     OW93389   7.880   2.268   3.380
30461SOL    HW193390   7.959   2.214   3.370
30461SOL    HW293391   7.808   2.205   3.361
30462SOL     OW93392   9.070   2.312   2.601
30462SOL    HW193393   9.001   2.340   2.539
30462SOL    HW293394   9.043   2.361   2.681
30463SOL     OW93395   7.666   3.580   2.336
30463SOL    HW193396   7.699   3.654   2.390
30463SOL    HW293397   7.734   3.574   2.266
30464SOL     OW93398   8.565   3.213   3.521
30464SOL    HW193399   8.623   3.213   3.598
30464SOL    HW293400   8.532   3.122   3.523
30465SOL     OW93401   7.695   3.292   2.390
30465SOL    HW193402   7.687   3.388   2.401
30465SOL    HW293403   7.626   3.257   2.447
30466SOL     OW93404   7.720   2.944   2.761
30466SOL    HW193405   7.718   2.872   2.825
30466SOL    HW293406   7.667   3.014   2.804
30467SOL     OW93407   8.046   3.656   3.263
30467SOL    HW193408   7.976   3.629   3.324
30467SOL    HW293409   8.072   3.743   3.298
30468SOL     OW93410   9.056   1.963   3.356
30468SOL    HW193411   9.070   2.042   3.301
30468SOL    HW293412   9.059   1.999   3.445
30469SOL     OW93413   7.558   2.518   2.426
30469SOL    HW193414   7.532   2.425   2.439
30469SOL    HW293415   7.550   2.556   2.516
30470SOL     OW93416   9.292   3.620   2.236
30470SOL    HW193417   9.380   3.591   2.270
30470SOL    HW293418   9.317   3.698   2.183
30471SOL     OW93419   7.505   3.456   1.976
30471SOL    HW193420   7.492   3.361   1.988
30471SOL    HW293421   7.472   3.492   2.060
30472SOL     OW93422   9.138   2.756   2.484
30472SOL    HW193423   9.223   2.737   2.443
30472SOL    HW293424   9.099   2.820   2.423
30473SOL     OW93425   9.079   2.980   2.306
30473SOL    HW193426   9.168   2.982   2.266
30473SOL    HW293427   9.088   3.046   2.377
30474SOL     OW93428   7.571   2.603   3.446
30474SOL    HW193429   7.665   2.626   3.442
30474SOL    HW293430   7.534   2.685   3.483
30475SOL     OW93431   8.036   3.277   2.611
30475SOL    HW193432   7.997   3.188   2.621
30475SOL    HW293433   8.028   3.290   2.515
30476SOL     OW93434   8.724   3.086   3.285
30476SOL    HW193435   8.763   3.020   3.225
30476SOL    HW293436   8.780   3.077   3.364
30477SOL     OW93437   8.278   1.854   2.366
30477SOL    HW193438   8.311   1.945   2.356
30477SOL    HW293439   8.181   1.869   2.368
30478SOL     OW93440   7.627   2.835   3.127
30478SOL    HW193441   7.717   2.801   3.115
30478SOL    HW293442   7.572   2.769   3.083
30479SOL     OW93443   8.995   2.821   2.043
30479SOL    HW193444   8.914   2.775   2.073
30479SOL    HW293445   9.025   2.860   2.126
30480SOL     OW93446   8.610   3.648   3.469
30480SOL    HW193447   8.645   3.712   3.405
30480SOL    HW293448   8.641   3.564   3.431
30481SOL     OW93449   7.789   2.087   3.645
30481SOL    HW193450   7.833   2.167   3.676
30481SOL    HW293451   7.699   2.100   3.681
30482SOL     OW93452   8.919   3.287   2.817
30482SOL    HW193453   8.856   3.306   2.890
30482SOL    HW293454   8.891   3.197   2.789
30483SOL     OW93455   9.086   3.600   2.455
30483SOL    HW193456   9.048   3.572   2.370
30483SOL    HW293457   9.059   3.524   2.512
30484SOL     OW93458   8.035   2.575   2.130
30484SOL    HW193459   8.038   2.662   2.084
30484SOL    HW293460   7.960   2.588   2.191
30485SOL     OW93461   8.719   2.190   2.767
30485SOL    HW193462   8.630   2.164   2.797
30485SOL    HW293463   8.775   2.154   2.839
30486SOL     OW93464   9.023   3.514   2.169
30486SOL    HW193465   9.119   3.525   2.176
30486SOL    HW293466   9.013   3.504   2.072
30487SOL     OW93467   8.249   2.481   3.321
30487SOL    HW193468   8.232   2.447   3.412
30487SOL    HW293469   8.198   2.420   3.265
30488SOL     OW93470   8.842   2.342   3.534
30488SOL    HW193471   8.850   2.407   3.606
30488SOL    HW293472   8.914   2.280   3.554
30489SOL     OW93473   8.414   2.740   3.440
30489SOL    HW193474   8.453   2.659   3.402
30489SOL    HW293475   8.371   2.780   3.361
30490SOL     OW93476   8.425   2.263   3.093
30490SOL    HW193477   8.333   2.279   3.115
30490SOL    HW293478   8.420   2.213   3.010
30491SOL     OW93479   8.492   2.545   2.268
30491SOL    HW193480   8.505   2.566   2.362
30491SOL    HW293481   8.406   2.498   2.270
30492SOL     OW93482   7.542   2.676   2.660
30492SOL    HW193483   7.621   2.677   2.718
30492SOL    HW293484   7.508   2.766   2.672
30493SOL     OW93485   7.564   3.704   3.418
30493SOL    HW193486   7.577   3.686   3.514
30493SOL    HW293487   7.468   3.699   3.411
30494SOL     OW93488   8.325   2.227   2.076
30494SOL    HW193489   8.363   2.285   2.009
30494SOL    HW293490   8.341   2.142   2.036
30495SOL     OW93491   9.167   2.458   3.702
30495SOL    HW193492   9.126   2.532   3.652
30495SOL    HW293493   9.200   2.402   3.630
30496SOL     OW93494   8.809   3.014   2.433
30496SOL    HW193495   8.884   3.004   2.373
30496SOL    HW293496   8.751   3.072   2.380
30497SOL     OW93497   7.998   2.064   2.759
30497SOL    HW193498   8.006   2.078   2.856
30497SOL    HW293499   7.982   2.153   2.725
30498SOL     OW93500   8.450   3.310   2.359
30498SOL    HW193501   8.423   3.377   2.295
30498SOL    HW293502   8.438   3.355   2.444
30499SOL     OW93503   7.786   3.666   2.718
30499SOL    HW193504   7.827   3.578   2.733
30499SOL    HW293505   7.859   3.724   2.745
30500SOL     OW93506   9.259   2.905   2.723
30500SOL    HW193507   9.192   2.898   2.654
30500SOL    HW293508   9.208   2.883   2.803
30501SOL     OW93509   8.671   3.405   3.359
30501SOL    HW193510   8.645   3.337   3.424
30501SOL    HW293511   8.628   3.372   3.279
30502SOL     OW93512   7.745   2.812   2.118
30502SOL    HW193513   7.834   2.833   2.083
30502SOL    HW293514   7.721   2.738   2.062
30503SOL     OW93515   8.920   2.617   2.581
30503SOL    HW193516   8.925   2.590   2.673
30503SOL    HW293517   9.005   2.663   2.567
30504SOL     OW93518   7.900   3.134   3.583
30504SOL    HW193519   7.859   3.142   3.493
30504SOL    HW293520   7.821   3.148   3.639
30505SOL     OW93521   8.557   3.629   2.101
30505SOL    HW193522   8.485   3.587   2.152
30505SOL    HW293523   8.565   3.568   2.026
30506SOL     OW93524   7.617   2.152   3.360
30506SOL    HW193525   7.544   2.210   3.385
30506SOL    HW293526   7.594   2.069   3.405
30507SOL     OW93527   9.065   3.231   1.961
30507SOL    HW193528   9.027   3.313   1.925
30507SOL    HW293529   9.001   3.163   1.933
30508SOL     OW93530   7.899   3.609   2.173
30508SOL    HW193531   7.952   3.648   2.245
30508SOL    HW293532   7.965   3.558   2.124
30509SOL     OW93533   8.847   1.989   2.302
30509SOL    HW193534   8.842   1.937   2.220
30509SOL    HW293535   8.942   2.000   2.313
30510SOL     OW93536   7.687   3.656   3.093
30510SOL    HW193537   7.744   3.593   3.140
30510SOL    HW293538   7.684   3.619   3.004
30511SOL     OW93539   8.411   3.572   2.741
30511SOL    HW193540   8.488   3.516   2.754
30511SOL    HW293541   8.360   3.522   2.675
30512SOL     OW93542   7.825   2.549   2.329
30512SOL    HW193543   7.846   2.455   2.349
30512SOL    HW293544   7.730   2.552   2.347
30513SOL     OW93545   8.990   2.114   3.593
30513SOL    HW193546   8.989   2.112   3.691
30513SOL    HW293547   8.923   2.048   3.571
30514SOL     OW93548   8.086   2.000   1.952
30514SOL    HW193549   8.151   1.936   1.983
30514SOL    HW293550   8.036   1.949   1.886
30515SOL     OW93551   8.227   2.132   3.595
30515SOL    HW193552   8.304   2.072   3.604
30515SOL    HW293553   8.171   2.103   3.669
30516SOL     OW93554   8.332   3.398   3.049
30516SOL    HW193555   8.322   3.366   2.958
30516SOL    HW293556   8.394   3.334   3.088
30517SOL     OW93557   8.788   2.458   3.284
30517SOL    HW193558   8.827   2.431   3.369
30517SOL    HW293559   8.834   2.541   3.263
30518SOL     OW93560   8.251   3.271   2.784
30518SOL    HW193561   8.337   3.259   2.740
30518SOL    HW293562   8.188   3.266   2.710
30519SOL     OW93563   8.384   2.400   2.768
30519SOL    HW193564   8.363   2.394   2.673
30519SOL    HW293565   8.400   2.307   2.788
30520SOL     OW93566   8.004   1.909   2.359
30520SOL    HW193567   7.924   1.913   2.416
30520SOL    HW293568   7.991   1.988   2.302
30521SOL     OW93569   8.887   3.042   1.895
30521SOL    HW193570   8.910   2.964   1.949
30521SOL    HW293571   8.795   3.058   1.921
30522SOL     OW93572   7.726   1.904   2.052
30522SOL    HW193573   7.784   1.978   2.030
30522SOL    HW293574   7.790   1.841   2.091
30523SOL     OW93575   8.386   2.112   2.346
30523SOL    HW193576   8.363   2.161   2.265
30523SOL    HW293577   8.483   2.125   2.349
30524SOL     OW93578   8.534   2.533   3.326
30524SOL    HW193579   8.483   2.451   3.328
30524SOL    HW293580   8.627   2.505   3.321
30525SOL     OW93581   8.674   3.434   2.659
30525SOL    HW193582   8.670   3.496   2.585
30525SOL    HW293583   8.755   3.461   2.705
30526SOL     OW93584   7.917   3.035   2.600
30526SOL    HW193585   7.844   2.998   2.655
30526SOL    HW293586   7.887   3.008   2.510
30527SOL     OW93587   8.691   3.674   2.450
30527SOL    HW193588   8.750   3.738   2.407
30527SOL    HW293589   8.654   3.725   2.524
30528SOL     OW93590   8.513   2.412   1.875
30528SOL    HW193591   8.457   2.491   1.866
30528SOL    HW293592   8.578   2.436   1.942
30529SOL     OW93593   7.493   2.429   3.256
30529SOL    HW193594   7.588   2.414   3.245
30529SOL    HW293595   7.493   2.504   3.318
30530SOL     OW93596   8.018   2.091   3.026
30530SOL    HW193597   8.061   2.016   3.069
30530SOL    HW293598   7.928   2.085   3.062
30531SOL     OW93599   8.324   2.324   2.519
30531SOL    HW193600   8.280   2.373   2.448
30531SOL    HW293601   8.348   2.242   2.474
30532SOL     OW93602   8.489   1.927   2.636
30532SOL    HW193603   8.435   1.918   2.557
30532SOL    HW293604   8.464   1.848   2.689
30533SOL     OW93605   8.873   3.039   2.740
30533SOL    HW193606   8.835   2.957   2.773
30533SOL    HW293607   8.860   3.029   2.645
30534SOL     OW93608   8.950   2.430   2.829
30534SOL    HW193609   8.884   2.361   2.847
30534SOL    HW293610   9.000   2.436   2.912
30535SOL     OW93611   9.313   2.682   2.237
30535SOL    HW193612   9.349   2.623   2.306
30535SOL    HW293613   9.276   2.616   2.175
30536SOL     OW93614   7.943   3.291   1.985
30536SOL    HW193615   7.861   3.269   2.032
30536SOL    HW293616   7.942   3.227   1.912
30537SOL     OW93617   9.122   3.143   2.526
30537SOL    HW193618   9.219   3.153   2.528
30537SOL    HW293619   9.089   3.231   2.552
30538SOL     OW93620   8.846   2.453   1.931
30538SOL    HW193621   8.790   2.431   2.008
30538SOL    HW293622   8.924   2.399   1.949
30539SOL     OW93623   7.969   2.100   2.178
30539SOL    HW193624   8.015   2.071   2.097
30539SOL    HW293625   7.940   2.189   2.150
30540SOL     OW93626   8.518   3.221   3.186
30540SOL    HW193627   8.442   3.192   3.239
30540SOL    HW293628   8.591   3.171   3.227
30541SOL     OW93629   9.041   3.484   3.494
30541SOL    HW193630   9.048   3.528   3.408
30541SOL    HW293631   9.132   3.449   3.503
30542SOL     OW93632   8.565   3.082   2.943
30542SOL    HW193633   8.510   3.120   3.012
30542SOL    HW293634   8.534   3.128   2.863
30543SOL     OW93635   9.050   2.960   2.947
30543SOL    HW193636   9.059   3.022   3.023
30543SOL    HW293637   9.003   3.016   2.883
30544SOL     OW93638   8.359   1.973   3.260
30544SOL    HW193639   8.391   1.946   3.172
30544SOL    HW293640   8.439   2.013   3.298
30545SOL     OW93641   8.447   2.976   3.590
30545SOL    HW193642   8.360   3.014   3.609
30545SOL    HW293643   8.427   2.902   3.530
30546SOL     OW93644   8.188   2.972   2.258
30546SOL    HW193645   8.171   2.931   2.345
30546SOL    HW293646   8.213   2.895   2.203
30547SOL     OW93647   7.860   2.676   3.128
30547SOL    HW193648   7.936   2.671   3.190
30547SOL    HW293649   7.823   2.586   3.132
30548SOL     OW93650   8.733   2.250   3.121
30548SOL    HW193651   8.752   2.324   3.181
30548SOL    HW293652   8.640   2.265   3.096
30549SOL     OW93653   7.510   3.430   3.204
30549SOL    HW193654   7.501   3.520   3.171
30549SOL    HW293655   7.607   3.415   3.198
30550SOL     OW93656   7.836   2.968   2.359
30550SOL    HW193657   7.875   3.021   2.289
30550SOL    HW293658   7.818   2.884   2.313
30551SOL     OW93659   7.981   2.406   2.701
30551SOL    HW193660   8.006   2.468   2.629
30551SOL    HW293661   8.049   2.424   2.767
30552SOL     OW93662   8.682   3.204   2.255
30552SOL    HW193663   8.728   3.278   2.298
30552SOL    HW293664   8.590   3.218   2.284
30553SOL     OW93665   8.754   3.325   3.026
30553SOL    HW193666   8.811   3.324   3.105
30553SOL    HW293667   8.684   3.262   3.049
30554SOL     OW93668   9.024   2.466   2.322
30554SOL    HW193669   8.971   2.510   2.390
30554SOL    HW293670   9.051   2.539   2.267
30555SOL     OW93671   7.779   3.382   3.169
30555SOL    HW193672   7.774   3.344   3.078
30555SOL    HW293673   7.874   3.400   3.175
30556SOL     OW93674   7.882   2.591   3.487
30556SOL    HW193675   7.935   2.633   3.417
30556SOL    HW293676   7.903   2.497   3.474
30557SOL     OW93677   9.061   2.631   3.533
30557SOL    HW193678   8.978   2.681   3.533
30557SOL    HW293679   9.114   2.682   3.468
30558SOL     OW93680   8.452   1.971   3.632
30558SOL    HW193681   8.506   2.044   3.601
30558SOL    HW293682   8.498   1.896   3.591
30559SOL     OW93683   7.954   1.874   3.617
30559SOL    HW193684   7.909   1.820   3.550
30559SOL    HW293685   7.895   1.952   3.621
30560SOL     OW93686   8.030   2.740   2.921
30560SOL    HW193687   8.059   2.831   2.914
30560SOL    HW293688   7.971   2.740   2.999
30561SOL     OW93689   8.807   2.727   2.867
30561SOL    HW193690   8.719   2.689   2.850
30561SOL    HW293691   8.856   2.650   2.897
30562SOL     OW93692   8.671   2.384   2.131
30562SOL    HW193693   8.676   2.308   2.192
30562SOL    HW293694   8.608   2.442   2.179
30563SOL     OW93695   7.750   2.065   3.113
30563SOL    HW193696   7.701   2.094   3.192
30563SOL    HW293697   7.720   1.972   3.106
30564SOL     OW93698   7.494   3.160   3.142
30564SOL    HW193699   7.512   3.103   3.220
30564SOL    HW293700   7.489   3.249   3.180
30565SOL     OW93701   8.160   2.496   2.904
30565SOL    HW193702   8.247   2.486   2.864
30565SOL    HW293703   8.138   2.591   2.895
30566SOL     OW93704   9.209   2.826   3.710
30566SOL    HW193705   9.163   2.828   3.625
30566SOL    HW293706   9.136   2.825   3.773
30567SOL     OW93707   7.747   1.928   2.475
30567SOL    HW193708   7.721   2.018   2.501
30567SOL    HW293709   7.755   1.884   2.561
30568SOL     OW93710   9.049   2.234   2.202
30568SOL    HW193711   9.084   2.167   2.264
30568SOL    HW293712   9.036   2.312   2.260
30569SOL     OW93713   8.519   2.620   2.833
30569SOL    HW193714   8.496   2.637   2.926
30569SOL    HW293715   8.478   2.532   2.819
30570SOL     OW93716   8.426   3.432   3.569
30570SOL    HW193717   8.416   3.482   3.486
30570SOL    HW293718   8.461   3.346   3.537
30571SOL     OW93719   9.299   3.438   3.465
30571SOL    HW193720   9.293   3.371   3.396
30571SOL    HW293721   9.377   3.411   3.516
30572SOL     OW93722   7.792   2.765   3.662
30572SOL    HW193723   7.874   2.815   3.653
30572SOL    HW293724   7.814   2.685   3.610
30573SOL     OW93725   8.955   2.115   1.982
30573SOL    HW193726   8.882   2.059   2.014
30573SOL    HW293727   8.994   2.150   2.065
30574SOL     OW93728   8.738   2.697   1.887
30574SOL    HW193729   8.785   2.612   1.900
30574SOL    HW293730   8.773   2.725   1.800
30575SOL     OW93731   8.502   3.226   2.704
30575SOL    HW193732   8.517   3.147   2.647
30575SOL    HW293733   8.579   3.282   2.686
30576SOL     OW93734   7.738   2.678   2.862
30576SOL    HW193735   7.832   2.688   2.841
30576SOL    HW293736   7.733   2.583   2.884
30577SOL     OW93737   7.774   2.402   2.866
30577SOL    HW193738   7.744   2.311   2.849
30577SOL    HW293739   7.843   2.412   2.796
30578SOL     OW93740   8.601   2.227   3.558
30578SOL    HW193741   8.556   2.284   3.623
30578SOL    HW293742   8.691   2.267   3.555
30579SOL     OW93743   8.613   2.057   3.350
30579SOL    HW193744   8.612   2.129   3.417
30579SOL    HW293745   8.658   2.099   3.276
30580SOL     OW93746   7.441   3.180   2.069
30580SOL    HW193747   7.349   3.191   2.036
30580SOL    HW293748   7.443   3.087   2.097
30581SOL     OW93749   7.539   3.645   2.808
30581SOL    HW193750   7.508   3.569   2.753
30581SOL    HW293751   7.630   3.658   2.774
30582SOL     OW93752   7.928   3.446   2.780
30582SOL    HW193753   7.999   3.511   2.798
30582SOL    HW293754   7.973   3.385   2.718
30583SOL     OW93755   8.424   2.637   3.096
30583SOL    HW193756   8.480   2.607   3.170
30583SOL    HW293757   8.337   2.607   3.126
30584SOL     OW93758   7.471   2.379   2.977
30584SOL    HW193759   7.550   2.370   2.923
30584SOL    HW293760   7.507   2.407   3.062
30585SOL     OW93761   7.667   2.379   3.589
30585SOL    HW193762   7.712   2.329   3.519
30585SOL    HW293763   7.616   2.445   3.539
30586SOL     OW93764   8.840   2.790   3.504
30586SOL    HW193765   8.861   2.886   3.509
30586SOL    HW293766   8.844   2.774   3.408
30587SOL     OW93767   8.243   2.428   2.254
30587SOL    HW193768   8.253   2.363   2.182
30587SOL    HW293769   8.170   2.484   2.221
30588SOL     OW93770   9.085   2.483   3.067
30588SOL    HW193771   9.060   2.419   3.134
30588SOL    HW293772   9.170   2.448   3.035
30589SOL     OW93773   7.696   3.401   3.580
30589SOL    HW193774   7.683   3.475   3.641
30589SOL    HW293775   7.698   3.324   3.640
30590SOL     OW93776   8.125   2.339   3.124
30590SOL    HW193777   8.088   2.258   3.085
30590SOL    HW293778   8.126   2.401   3.048
30591SOL     OW93779   8.353   3.551   3.328
30591SOL    HW193780   8.356   3.524   3.235
30591SOL    HW293781   8.365   3.647   3.323
30592SOL     OW93782   7.889   2.334   2.065
30592SOL    HW193783   7.957   2.403   2.071
30592SOL    HW293784   7.809   2.388   2.050
30593SOL     OW93785   7.560   2.990   3.334
30593SOL    HW193786   7.563   2.933   3.414
30593SOL    HW293787   7.580   2.925   3.262
30594SOL     OW93788   8.763   2.904   3.078
30594SOL    HW193789   8.785   2.849   3.001
30594SOL    HW293790   8.700   2.967   3.040
30595SOL     OW93791   8.754   2.721   2.154
30595SOL    HW193792   8.670   2.693   2.193
30595SOL    HW293793   8.732   2.723   2.058
30596SOL     OW93794   9.206   3.618   2.987
30596SOL    HW193795   9.286   3.630   2.933
30596SOL    HW293796   9.194   3.520   2.982
30597SOL     OW93797   8.686   3.589   2.976
30597SOL    HW193798   8.771   3.613   2.936
30597SOL    HW293799   8.698   3.494   2.994
30598SOL     OW93800   7.551   3.120   2.882
30598SOL    HW193801   7.525   3.133   2.976
30598SOL    HW293802   7.475   3.071   2.846
30599SOL     OW93803   8.138   3.496   3.596
30599SOL    HW193804   8.089   3.580   3.591
30599SOL    HW293805   8.225   3.520   3.560
30600SOL     OW93806   9.147   2.016   2.355
30600SOL    HW193807   9.219   1.997   2.294
30600SOL    HW293808   9.137   1.932   2.403
30601SOL     OW93809   8.818   3.447   2.357
30601SOL    HW193810   8.867   3.463   2.275
30601SOL    HW293811   8.767   3.529   2.369
30602SOL     OW93812   7.614   3.654   3.683
30602SOL    HW193813   7.554   3.595   3.731
30602SOL    HW293814   7.661   3.697   3.757
30603SOL     OW93815   8.700   2.777   2.518
30603SOL    HW193816   8.779   2.723   2.539
30603SOL    HW293817   8.741   2.858   2.483
30604SOL     OW93818   8.259   3.126   3.289
30604SOL    HW193819   8.226   3.177   3.366
30604SOL    HW293820   8.188   3.142   3.225
30605SOL     OW93821   8.114   3.487   2.020
30605SOL    HW193822   8.132   3.494   1.924
30605SOL    HW293823   8.058   3.405   2.020
30606SOL     OW93824   9.071   3.590   3.248
30606SOL    HW193825   9.123   3.601   3.167
30606SOL    HW293826   9.059   3.682   3.279
30607SOL     OW93827   9.293   2.036   2.835
30607SOL    HW193828   9.312   1.944   2.808
30607SOL    HW293829   9.208   2.054   2.788
30608SOL     OW93830   7.695   2.175   2.569
30608SOL    HW193831   7.615   2.225   2.548
30608SOL    HW293832   7.699   2.180   2.666
30609SOL     OW93833   8.621   3.483   1.880
30609SOL    HW193834   8.636   3.389   1.902
30609SOL    HW293835   8.558   3.478   1.806
30610SOL     OW93836   8.278   2.863   3.248
30610SOL    HW193837   8.316   2.869   3.159
30610SOL    HW293838   8.275   2.958   3.273
30611SOL     OW93839   8.350   2.776   2.135
30611SOL    HW193840   8.423   2.824   2.093
30611SOL    HW293841   8.392   2.697   2.172
30612SOL     OW93842   8.995   3.502   1.896
30612SOL    HW193843   8.900   3.495   1.882
30612SOL    HW293844   9.028   3.501   1.804
30613SOL     OW93845   7.791   3.136   3.345
30613SOL    HW193846   7.780   3.204   3.277
30613SOL    HW293847   7.710   3.083   3.335
30614SOL     OW93848   9.058   3.164   3.133
30614SOL    HW193849   9.098   3.139   3.219
30614SOL    HW293850   9.000   3.236   3.163
30615SOL     OW93851   8.502   2.980   2.581
30615SOL    HW193852   8.425   2.930   2.612
30615SOL    HW293853   8.559   2.910   2.547
30616SOL     OW93854   8.477   2.091   2.853
30616SOL    HW193855   8.472   2.049   2.765
30616SOL    HW293856   8.479   2.013   2.911
30617SOL     OW93857   8.069   3.370   2.353
30617SOL    HW193858   8.112   3.311   2.289
30617SOL    HW293859   7.981   3.383   2.314
30618SOL     OW93860   9.160   2.231   3.243
30618SOL    HW193861   9.219   2.309   3.237
30618SOL    HW293862   9.207   2.167   3.185
30619SOL     OW93863   7.691   3.245   2.129
30619SOL    HW193864   7.595   3.228   2.122
30619SOL    HW293865   7.701   3.259   2.225
30620SOL     OW93866   7.564   2.854   3.558
30620SOL    HW193867   7.491   2.844   3.622
30620SOL    HW293868   7.643   2.829   3.610
30621SOL     OW93869   8.113   2.043   3.355
30621SOL    HW193870   8.201   2.015   3.320
30621SOL    HW293871   8.138   2.077   3.443
30622SOL     OW93872   7.544   2.198   1.876
30622SOL    HW193873   7.449   2.210   1.866
30622SOL    HW293874   7.579   2.273   1.823
30623SOL     OW93875   8.903   2.718   3.246
30623SOL    HW193876   8.860   2.783   3.187
30623SOL    HW293877   8.996   2.747   3.242
30624SOL     OW93878   7.493   2.025   2.152
30624SOL    HW193879   7.494   2.115   2.115
30624SOL    HW293880   7.574   1.988   2.113
30625SOL     OW93881   8.649   3.215   1.976
30625SOL    HW193882   8.567   3.163   1.982
30625SOL    HW293883   8.678   3.213   2.070
30626SOL     OW93884   8.069   2.676   3.291
30626SOL    HW193885   8.127   2.754   3.288
30626SOL    HW293886   8.137   2.606   3.301
30627SOL     OW93887   8.955   3.616   2.814
30627SOL    HW193888   8.994   3.666   2.741
30627SOL    HW293889   9.029   3.604   2.874
30628SOL     OW93890   8.187   2.406   3.570
30628SOL    HW193891   8.194   2.446   3.657
30628SOL    HW293892   8.193   2.310   3.587
30629SOL     OW93893   8.893   3.051   3.498
30629SOL    HW193894   8.892   3.054   3.595
30629SOL    HW293895   8.986   3.076   3.478
30630SOL     OW93896   7.827   3.587   3.419
30630SOL    HW193897   7.745   3.637   3.403
30630SOL    HW293898   7.792   3.503   3.456
30631SOL     OW93899   9.166   2.744   3.101
30631SOL    HW193900   9.131   2.659   3.068
30631SOL    HW293901   9.128   2.810   3.041
30632SOL     OW93902   8.656   2.184   2.336
30632SOL    HW193903   8.724   2.115   2.327
30632SOL    HW293904   8.691   2.238   2.409
30633SOL     OW93905   8.043   2.602   2.517
30633SOL    HW193906   8.077   2.692   2.505
30633SOL    HW293907   7.976   2.595   2.447
30634SOL     OW93908   9.218   2.232   3.502
30634SOL    HW193909   9.189   2.241   3.409
30634SOL    HW293910   9.141   2.187   3.542
30635SOL     OW93911   9.196   2.795   3.368
30635SOL    HW193912   9.197   2.893   3.375
30635SOL    HW293913   9.218   2.781   3.274
30636SOL     OW93914   8.319   3.222   1.904
30636SOL    HW193915   8.275   3.231   1.990
30636SOL    HW293916   8.321   3.312   1.870
30637SOL     OW93917   8.087   3.664   2.769
30637SOL    HW193918   8.076   3.760   2.755
30637SOL    HW293919   8.182   3.656   2.789
30638SOL     OW93920   8.325   2.808   2.710
30638SOL    HW193921   8.376   2.733   2.745
30638SOL    HW293922   8.319   2.866   2.787
30639SOL     OW93923   8.557   2.885   1.967
30639SOL    HW193924   8.510   2.926   1.892
30639SOL    HW293925   8.601   2.811   1.922
30640SOL     OW93926   9.315   3.423   2.700
30640SOL    HW193927   9.220   3.405   2.698
30640SOL    HW293928   9.346   3.354   2.760
30641SOL     OW93929   7.681   3.184   3.731
30641SOL    HW193930   7.614   3.118   3.707
30641SOL    HW293931   7.643   3.218   3.813
30642SOL     OW93932   7.537   3.101   2.515
30642SOL    HW193933   7.525   3.035   2.585
30642SOL    HW293934   7.618   3.069   2.471
30643SOL     OW93935   8.124   3.258   3.478
30643SOL    HW193936   8.039   3.222   3.508
30643SOL    HW293937   8.123   3.347   3.519
30644SOL     OW93938   9.273   2.041   3.098
30644SOL    HW193939   9.274   1.944   3.094
30644SOL    HW293940   9.283   2.063   3.003
30645SOL     OW93941   7.879   2.291   2.393
30645SOL    HW193942   7.924   2.220   2.345
30645SOL    HW293943   7.838   2.246   2.469
30646SOL     OW93944   9.153   3.359   2.949
30646SOL    HW193945   9.070   3.329   2.909
30646SOL    HW293946   9.158   3.298   3.025
30647SOL     OW93947   7.775   2.401   3.150
30647SOL    HW193948   7.843   2.359   3.204
30647SOL    HW293949   7.795   2.370   3.060
30648SOL     OW93950   8.272   3.460   2.533
30648SOL    HW193951   8.257   3.474   2.438
30648SOL    HW293952   8.190   3.415   2.557
30649SOL     OW93953   8.878   2.096   2.956
30649SOL    HW193954   8.929   2.030   3.004
30649SOL    HW293955   8.828   2.142   3.027
30650SOL     OW93956   8.462   1.866   3.018
30650SOL    HW193957   8.407   1.792   2.988
30650SOL    HW293958   8.551   1.824   3.016
30651SOL     OW93959   8.232   3.217   2.179
30651SOL    HW193960   8.199   3.125   2.185
30651SOL    HW293961   8.310   3.210   2.235
30652SOL     OW93962   8.048   3.411   3.142
30652SOL    HW193963   8.049   3.498   3.188
30652SOL    HW293964   8.138   3.410   3.107
30653SOL     OW93965   8.759   1.906   2.019
30653SOL    HW193966   8.780   1.831   1.962
30653SOL    HW293967   8.670   1.880   2.053
30654SOL     OW93968   8.751   2.341   2.538
30654SOL    HW193969   8.683   2.411   2.538
30654SOL    HW293970   8.732   2.292   2.620
30655SOL     OW93971   9.050   2.063   2.718
30655SOL    HW193972   8.970   2.062   2.772
30655SOL    HW293973   9.046   2.149   2.674
30656SOL     OW93974   7.492   2.933   2.172
30656SOL    HW193975   7.586   2.929   2.148
30656SOL    HW293976   7.476   2.839   2.193
30657SOL     OW93977   8.340   3.507   2.195
30657SOL    HW193978   8.260   3.482   2.147
30657SOL    HW293979   8.311   3.583   2.249
30658SOL     OW93980   7.686   2.504   3.857
30658SOL    HW193981   7.595   2.488   3.888
30658SOL    HW293982   7.686   2.469   3.766
30659SOL     OW93983   7.674   2.140   4.708
30659SOL    HW193984   7.694   2.117   4.801
30659SOL    HW293985   7.585   2.100   4.699
30660SOL     OW93986   7.449   2.264   4.353
30660SOL    HW193987   7.366   2.286   4.401
30660SOL    HW293988   7.423   2.184   4.305
30661SOL     OW93989   8.019   3.125   4.918
30661SOL    HW193990   7.927   3.130   4.889
30661SOL    HW293991   8.033   3.216   4.949
30662SOL     OW93992   8.996   3.381   4.428
30662SOL    HW193993   8.954   3.368   4.515
30662SOL    HW293994   8.921   3.381   4.365
30663SOL     OW93995   8.584   2.539   4.436
30663SOL    HW193996   8.613   2.628   4.407
30663SOL    HW293997   8.545   2.561   4.522
30664SOL     OW93998   9.224   2.469   3.962
30664SOL    HW193999   9.206   2.469   3.866
30664SOL    HW294000   9.149   2.421   3.998
30665SOL     OW94001   8.182   3.010   4.734
30665SOL    HW194002   8.122   3.051   4.799
30665SOL    HW294003   8.224   3.089   4.697
30666SOL     OW94004   8.331   2.607   5.536
30666SOL    HW194005   8.305   2.673   5.602
30666SOL    HW294006   8.351   2.662   5.458
30667SOL     OW94007   8.134   2.889   4.371
30667SOL    HW194008   8.206   2.863   4.432
30667SOL    HW294009   8.073   2.937   4.430
30668SOL     OW94010   8.159   3.011   5.526
30668SOL    HW194011   8.203   3.098   5.537
30668SOL    HW294012   8.071   3.038   5.492
30669SOL     OW94013   7.747   3.324   4.804
30669SOL    HW194014   7.685   3.268   4.756
30669SOL    HW294015   7.805   3.359   4.734
30670SOL     OW94016   8.919   3.353   5.101
30670SOL    HW194017   8.974   3.434   5.108
30670SOL    HW294018   8.844   3.373   5.161
30671SOL     OW94019   7.880   2.256   5.257
30671SOL    HW194020   7.957   2.199   5.244
30671SOL    HW294021   7.806   2.201   5.226
30672SOL     OW94022   9.069   2.315   4.468
30672SOL    HW194023   8.996   2.345   4.412
30672SOL    HW294024   9.052   2.368   4.547
30673SOL     OW94025   7.699   3.557   4.237
30673SOL    HW194026   7.722   3.648   4.268
30673SOL    HW294027   7.683   3.571   4.143
30674SOL     OW94028   8.569   3.194   5.383
30674SOL    HW194029   8.618   3.201   5.466
30674SOL    HW294030   8.523   3.109   5.395
30675SOL     OW94031   7.685   3.292   4.244
30675SOL    HW194032   7.695   3.389   4.255
30675SOL    HW294033   7.621   3.270   4.314
30676SOL     OW94034   7.712   2.948   4.617
30676SOL    HW194035   7.716   2.876   4.681
30676SOL    HW294036   7.654   3.013   4.664
30677SOL     OW94037   9.053   1.969   5.224
30677SOL    HW194038   9.047   2.045   5.164
30677SOL    HW294039   9.067   2.013   5.309
30678SOL     OW94040   7.554   2.509   4.283
30678SOL    HW194041   7.520   2.420   4.301
30678SOL    HW294042   7.550   2.552   4.371
30679SOL     OW94043   9.307   3.601   4.065
30679SOL    HW194044   9.373   3.586   4.135
30679SOL    HW294045   9.326   3.694   4.041
30680SOL     OW94046   7.487   3.463   3.839
30680SOL    HW194047   7.455   3.376   3.865
30680SOL    HW294048   7.464   3.516   3.918
30681SOL     OW94049   9.138   2.752   4.352
30681SOL    HW194050   9.222   2.735   4.306
30681SOL    HW294051   9.103   2.825   4.299
30682SOL     OW94052   9.089   2.986   4.174
30682SOL    HW194053   9.178   2.986   4.134
30682SOL    HW294054   9.099   3.054   4.243
30683SOL     OW94055   7.554   2.603   5.298
30683SOL    HW194056   7.640   2.642   5.319
30683SOL    HW294057   7.495   2.680   5.306
30684SOL     OW94058   8.036   3.267   4.475
30684SOL    HW194059   8.002   3.177   4.490
30684SOL    HW294060   8.024   3.275   4.379
30685SOL     OW94061   8.739   3.079   5.144
30685SOL    HW194062   8.774   3.007   5.088
30685SOL    HW294063   8.789   3.068   5.227
30686SOL     OW94064   8.278   1.864   4.212
30686SOL    HW194065   8.306   1.958   4.212
30686SOL    HW294066   8.182   1.873   4.225
30687SOL     OW94067   7.638   2.838   4.990
30687SOL    HW194068   7.726   2.799   4.972
30687SOL    HW294069   7.579   2.787   4.935
30688SOL     OW94070   8.984   2.819   3.918
30688SOL    HW194071   8.902   2.781   3.954
30688SOL    HW294072   9.022   2.863   3.995
30689SOL     OW94073   8.640   3.658   5.341
30689SOL    HW194074   8.643   3.728   5.273
30689SOL    HW294075   8.653   3.578   5.288
30690SOL     OW94076   7.793   2.095   5.508
30690SOL    HW194077   7.843   2.177   5.496
30690SOL    HW294078   7.714   2.128   5.553
30691SOL     OW94079   8.922   3.287   4.686
30691SOL    HW194080   8.855   3.315   4.751
30691SOL    HW294081   8.887   3.200   4.657
30692SOL     OW94082   9.102   3.601   4.329
30692SOL    HW194083   9.085   3.561   4.243
30692SOL    HW294084   9.070   3.529   4.387
30693SOL     OW94085   8.026   2.556   4.001
30693SOL    HW194086   8.047   2.650   3.998
30693SOL    HW294087   7.948   2.555   4.060
30694SOL     OW94088   8.721   2.185   4.635
30694SOL    HW194089   8.632   2.156   4.663
30694SOL    HW294090   8.778   2.148   4.706
30695SOL     OW94091   9.024   3.504   4.020
30695SOL    HW194092   9.119   3.519   4.024
30695SOL    HW294093   9.011   3.493   3.923
30696SOL     OW94094   8.263   2.476   5.180
30696SOL    HW194095   8.233   2.445   5.269
30696SOL    HW294096   8.210   2.419   5.121
30697SOL     OW94097   8.842   2.344   5.394
30697SOL    HW194098   8.841   2.401   5.473
30697SOL    HW294099   8.905   2.274   5.419
30698SOL     OW94100   8.406   2.744   5.307
30698SOL    HW194101   8.448   2.665   5.266
30698SOL    HW294102   8.366   2.786   5.228
30699SOL     OW94103   8.434   2.260   4.954
30699SOL    HW194104   8.351   2.280   4.999
30699SOL    HW294105   8.405   2.224   4.869
30700SOL     OW94106   8.489   2.548   4.132
30700SOL    HW194107   8.501   2.566   4.227
30700SOL    HW294108   8.404   2.500   4.132
30701SOL     OW94109   7.551   2.659   4.511
30701SOL    HW194110   7.627   2.663   4.572
30701SOL    HW294111   7.500   2.738   4.537
30702SOL     OW94112   7.548   3.655   5.305
30702SOL    HW194113   7.565   3.664   5.401
30702SOL    HW294114   7.470   3.709   5.291
30703SOL     OW94115   8.323   2.217   3.940
30703SOL    HW194116   8.375   2.271   3.879
30703SOL    HW294117   8.312   2.137   3.889
30704SOL     OW94118   9.164   2.450   5.566
30704SOL    HW194119   9.129   2.527   5.517
30704SOL    HW294120   9.191   2.393   5.492
30705SOL     OW94121   8.815   3.006   4.289
30705SOL    HW194122   8.894   3.009   4.234
30705SOL    HW294123   8.760   3.075   4.248
30706SOL     OW94124   8.004   2.065   4.620
30706SOL    HW194125   8.003   2.077   4.717
30706SOL    HW294126   7.996   2.156   4.588
30707SOL     OW94127   8.432   3.296   4.218
30707SOL    HW194128   8.416   3.385   4.185
30707SOL    HW294129   8.445   3.309   4.314
30708SOL     OW94130   7.786   3.676   4.589
30708SOL    HW194131   7.842   3.598   4.609
30708SOL    HW294132   7.850   3.749   4.591
30709SOL     OW94133   9.267   2.888   4.595
30709SOL    HW194134   9.205   2.881   4.521
30709SOL    HW294135   9.208   2.890   4.672
30710SOL     OW94136   8.684   3.401   5.226
30710SOL    HW194137   8.646   3.344   5.294
30710SOL    HW294138   8.633   3.375   5.149
30711SOL     OW94139   7.757   2.795   3.953
30711SOL    HW194140   7.753   2.812   3.858
30711SOL    HW294141   7.732   2.701   3.957
30712SOL     OW94142   8.937   2.598   4.431
30712SOL    HW194143   8.936   2.587   4.527
30712SOL    HW294144   9.016   2.655   4.417
30713SOL     OW94145   7.921   3.102   5.452
30713SOL    HW194146   7.879   3.106   5.363
30713SOL    HW294147   7.842   3.119   5.508
30714SOL     OW94148   8.547   3.637   3.967
30714SOL    HW194149   8.476   3.587   4.010
30714SOL    HW294150   8.561   3.589   3.884
30715SOL     OW94151   7.618   2.152   5.216
30715SOL    HW194152   7.548   2.211   5.246
30715SOL    HW294153   7.599   2.070   5.265
30716SOL     OW94154   9.062   3.218   3.824
30716SOL    HW194155   9.031   3.303   3.789
30716SOL    HW294156   9.007   3.154   3.775
30717SOL     OW94157   7.917   3.602   4.042
30717SOL    HW194158   7.949   3.651   4.121
30717SOL    HW294159   7.999   3.579   3.996
30718SOL     OW94160   7.683   3.619   4.963
30718SOL    HW194161   7.742   3.677   5.014
30718SOL    HW294162   7.728   3.611   4.878
30719SOL     OW94163   8.392   3.565   4.649
30719SOL    HW194164   8.482   3.531   4.635
30719SOL    HW294165   8.342   3.519   4.578
30720SOL     OW94166   7.812   2.545   4.181
30720SOL    HW194167   7.839   2.457   4.216
30720SOL    HW294168   7.717   2.544   4.204
30721SOL     OW94169   8.991   2.126   5.451
30721SOL    HW194170   8.985   2.125   5.550
30721SOL    HW294171   8.929   2.054   5.429
30722SOL     OW94172   8.094   1.998   3.810
30722SOL    HW194173   8.155   1.934   3.848
30722SOL    HW294174   8.041   1.941   3.749
30723SOL     OW94175   8.223   2.125   5.459
30723SOL    HW194176   8.300   2.065   5.471
30723SOL    HW294177   8.168   2.101   5.536
30724SOL     OW94178   8.321   3.399   4.921
30724SOL    HW194179   8.315   3.400   4.824
30724SOL    HW294180   8.388   3.332   4.937
30725SOL     OW94181   8.785   2.453   5.150
30725SOL    HW194182   8.824   2.423   5.234
30725SOL    HW294183   8.833   2.537   5.133
30726SOL     OW94184   8.241   3.279   4.655
30726SOL    HW194185   8.330   3.264   4.618
30726SOL    HW294186   8.184   3.284   4.576
30727SOL     OW94187   8.386   2.402   4.628
30727SOL    HW194188   8.363   2.391   4.533
30727SOL    HW294189   8.410   2.311   4.650
30728SOL     OW94190   8.010   1.906   4.227
30728SOL    HW194191   7.933   1.914   4.286
30728SOL    HW294192   7.996   1.983   4.168
30729SOL     OW94193   8.880   3.024   3.757
30729SOL    HW194194   8.912   2.954   3.817
30729SOL    HW294195   8.806   3.064   3.805
30730SOL     OW94196   7.720   1.929   3.926
30730SOL    HW194197   7.783   1.997   3.898
30730SOL    HW294198   7.780   1.861   3.963
30731SOL     OW94199   8.378   2.115   4.221
30731SOL    HW194200   8.351   2.154   4.136
30731SOL    HW294201   8.474   2.135   4.222
30732SOL     OW94202   8.535   2.538   5.203
30732SOL    HW194203   8.476   2.461   5.197
30732SOL    HW294204   8.624   2.501   5.192
30733SOL     OW94205   8.665   3.517   4.558
30733SOL    HW194206   8.675   3.552   4.468
30733SOL    HW294207   8.720   3.439   4.558
30734SOL     OW94208   7.918   3.023   4.458
30734SOL    HW194209   7.844   2.994   4.516
30734SOL    HW294210   7.883   2.998   4.369
30735SOL     OW94211   8.704   3.654   4.312
30735SOL    HW194212   8.753   3.725   4.266
30735SOL    HW294213   8.639   3.703   4.366
30736SOL     OW94214   8.510   2.387   3.754
30736SOL    HW194215   8.467   2.472   3.742
30736SOL    HW294216   8.582   2.405   3.817
30737SOL     OW94217   7.509   2.415   5.120
30737SOL    HW194218   7.604   2.405   5.099
30737SOL    HW294219   7.511   2.493   5.180
30738SOL     OW94220   8.016   2.097   4.889
30738SOL    HW194221   8.063   2.029   4.939
30738SOL    HW294222   7.924   2.084   4.923
30739SOL     OW94223   8.328   2.332   4.384
30739SOL    HW194224   8.272   2.381   4.323
30739SOL    HW294225   8.345   2.250   4.337
30740SOL     OW94226   8.489   1.920   4.485
30740SOL    HW194227   8.421   1.914   4.417
30740SOL    HW294228   8.468   1.844   4.542
30741SOL     OW94229   8.865   3.032   4.610
30741SOL    HW194230   8.784   2.989   4.639
30741SOL    HW294231   8.852   3.034   4.513
30742SOL     OW94232   8.941   2.438   4.692
30742SOL    HW194233   8.877   2.369   4.713
30742SOL    HW294234   8.995   2.446   4.772
30743SOL     OW94235   9.310   2.681   4.110
30743SOL    HW194236   9.359   2.624   4.172
30743SOL    HW294237   9.283   2.615   4.043
30744SOL     OW94238   7.945   3.254   3.878
30744SOL    HW194239   7.866   3.238   3.934
30744SOL    HW294240   7.913   3.227   3.791
30745SOL     OW94241   9.130   3.150   4.385
30745SOL    HW194242   9.227   3.162   4.386
30745SOL    HW294243   9.094   3.235   4.414
30746SOL     OW94244   8.859   2.461   3.789
30746SOL    HW194245   8.815   2.440   3.874
30746SOL    HW294246   8.953   2.456   3.810
30747SOL     OW94247   7.973   2.098   4.041
30747SOL    HW194248   8.018   2.070   3.960
30747SOL    HW294249   7.939   2.185   4.013
30748SOL     OW94250   9.186   3.092   5.298
30748SOL    HW194251   9.273   3.050   5.303
30748SOL    HW294252   9.210   3.186   5.311
30749SOL     OW94253   8.528   3.226   5.058
30749SOL    HW194254   8.449   3.199   5.109
30749SOL    HW294255   8.598   3.170   5.100
30750SOL     OW94256   9.066   3.466   5.356
30750SOL    HW194257   9.064   3.499   5.265
30750SOL    HW294258   9.150   3.416   5.358
30751SOL     OW94259   8.599   3.062   4.829
30751SOL    HW194260   8.526   3.101   4.879
30751SOL    HW294261   8.587   3.105   4.742
30752SOL     OW94262   9.052   2.956   4.798
30752SOL    HW194263   9.055   3.023   4.869
30752SOL    HW294264   8.995   3.000   4.732
30753SOL     OW94265   8.376   1.957   5.131
30753SOL    HW194266   8.405   1.934   5.041
30753SOL    HW294267   8.453   2.006   5.165
30754SOL     OW94268   8.449   2.968   5.470
30754SOL    HW194269   8.359   3.001   5.487
30754SOL    HW294270   8.434   2.895   5.408
30755SOL     OW94271   8.152   2.913   4.093
30755SOL    HW194272   8.126   2.915   4.187
30755SOL    HW294273   8.230   2.855   4.099
30756SOL     OW94274   7.873   2.669   4.990
30756SOL    HW194275   7.947   2.672   5.054
30756SOL    HW294276   7.832   2.583   5.009
30757SOL     OW94277   8.741   2.252   4.978
30757SOL    HW194278   8.759   2.326   5.039
30757SOL    HW294279   8.648   2.268   4.953
30758SOL     OW94280   7.515   3.423   5.054
30758SOL    HW194281   7.449   3.491   5.034
30758SOL    HW294282   7.597   3.475   5.038
30759SOL     OW94283   7.819   2.961   4.216
30759SOL    HW194284   7.816   3.030   4.149
30759SOL    HW294285   7.802   2.881   4.165
30760SOL     OW94286   7.992   2.400   4.573
30760SOL    HW194287   8.026   2.459   4.502
30760SOL    HW294288   8.049   2.424   4.648
30761SOL     OW94289   8.673   3.211   4.116
30761SOL    HW194290   8.715   3.291   4.155
30761SOL    HW294291   8.583   3.219   4.152
30762SOL     OW94292   8.743   3.330   4.893
30762SOL    HW194293   8.803   3.323   4.970
30762SOL    HW294294   8.667   3.276   4.921
30763SOL     OW94295   9.019   2.467   4.176
30763SOL    HW194296   8.974   2.499   4.256
30763SOL    HW294297   9.056   2.549   4.142
30764SOL     OW94298   7.816   3.314   5.057
30764SOL    HW194299   7.777   3.331   4.969
30764SOL    HW294300   7.898   3.367   5.049
30765SOL     OW94301   7.892   2.582   5.354
30765SOL    HW194302   7.943   2.626   5.284
30765SOL    HW294303   7.929   2.494   5.354
30766SOL     OW94304   9.079   2.645   5.411
30766SOL    HW194305   8.988   2.679   5.407
30766SOL    HW294306   9.120   2.691   5.335
30767SOL     OW94307   8.440   1.969   5.483
30767SOL    HW194308   8.502   2.041   5.467
30767SOL    HW294309   8.486   1.895   5.439
30768SOL     OW94310   7.953   1.869   5.480
30768SOL    HW194311   7.907   1.813   5.416
30768SOL    HW294312   7.893   1.946   5.484
30769SOL     OW94313   8.012   2.758   4.748
30769SOL    HW194314   8.063   2.841   4.746
30769SOL    HW294315   7.972   2.758   4.836
30770SOL     OW94316   8.803   2.719   4.745
30770SOL    HW194317   8.717   2.690   4.711
30770SOL    HW294318   8.852   2.637   4.749
30771SOL     OW94319   8.670   2.388   3.990
30771SOL    HW194320   8.663   2.317   4.056
30771SOL    HW294321   8.616   2.457   4.034
30772SOL     OW94322   7.760   2.056   4.976
30772SOL    HW194323   7.707   2.086   5.051
30772SOL    HW294324   7.733   1.962   4.968
30773SOL     OW94325   7.482   3.168   4.995
30773SOL    HW194326   7.516   3.122   5.073
30773SOL    HW294327   7.494   3.263   5.020
30774SOL     OW94328   8.168   2.508   4.775
30774SOL    HW194329   8.250   2.492   4.724
30774SOL    HW294330   8.144   2.599   4.751
30775SOL     OW94331   9.221   2.815   5.573
30775SOL    HW194332   9.168   2.755   5.518
30775SOL    HW294333   9.159   2.837   5.643
30776SOL     OW94334   7.757   1.924   4.333
30776SOL    HW194335   7.726   2.014   4.353
30776SOL    HW294336   7.748   1.882   4.421
30777SOL     OW94337   9.007   2.208   4.115
30777SOL    HW194338   9.077   2.168   4.169
30777SOL    HW294339   9.010   2.302   4.143
30778SOL     OW94340   8.526   2.621   4.702
30778SOL    HW194341   8.488   2.651   4.786
30778SOL    HW294342   8.486   2.533   4.693
30779SOL     OW94343   8.435   3.418   5.436
30779SOL    HW194344   8.414   3.470   5.356
30779SOL    HW294345   8.458   3.331   5.398
30780SOL     OW94346   9.302   3.347   5.324
30780SOL    HW194347   9.323   3.373   5.233
30780SOL    HW294348   9.383   3.376   5.372
30781SOL     OW94349   7.797   2.758   5.529
30781SOL    HW194350   7.881   2.785   5.568
30781SOL    HW294351   7.825   2.687   5.467
30782SOL     OW94352   8.961   2.114   3.862
30782SOL    HW194353   8.867   2.117   3.883
30782SOL    HW294354   9.000   2.162   3.937
30783SOL     OW94355   8.722   2.689   3.729
30783SOL    HW194356   8.782   2.613   3.739
30783SOL    HW294357   8.757   2.730   3.647
30784SOL     OW94358   7.740   2.676   4.714
30784SOL    HW194359   7.831   2.704   4.698
30784SOL    HW294360   7.752   2.585   4.747
30785SOL     OW94361   7.784   2.388   4.737
30785SOL    HW194362   7.751   2.299   4.716
30785SOL    HW294363   7.849   2.402   4.665
30786SOL     OW94364   8.604   2.225   5.419
30786SOL    HW194365   8.556   2.282   5.482
30786SOL    HW294366   8.690   2.270   5.415
30787SOL     OW94367   8.615   2.065   5.201
30787SOL    HW194368   8.615   2.126   5.279
30787SOL    HW294369   8.658   2.119   5.134
30788SOL     OW94370   7.455   3.181   3.914
30788SOL    HW194371   7.362   3.200   3.886
30788SOL    HW294372   7.447   3.091   3.952
30789SOL     OW94373   7.532   3.630   4.668
30789SOL    HW194374   7.504   3.561   4.605
30789SOL    HW294375   7.625   3.648   4.642
30790SOL     OW94376   7.940   3.456   4.656
30790SOL    HW194377   8.007   3.528   4.661
30790SOL    HW294378   7.988   3.390   4.604
30791SOL     OW94379   8.423   2.635   4.960
30791SOL    HW194380   8.476   2.603   5.035
30791SOL    HW294381   8.335   2.604   4.983
30792SOL     OW94382   7.474   2.380   4.831
30792SOL    HW194383   7.552   2.364   4.777
30792SOL    HW294384   7.512   2.413   4.913
30793SOL     OW94385   7.664   2.376   5.433
30793SOL    HW194386   7.723   2.339   5.366
30793SOL    HW294387   7.617   2.446   5.385
30794SOL     OW94388   8.841   2.777   5.380
30794SOL    HW194389   8.862   2.872   5.377
30794SOL    HW294390   8.829   2.756   5.286
30795SOL     OW94391   8.251   2.428   4.104
30795SOL    HW194392   8.260   2.357   4.037
30795SOL    HW294393   8.165   2.468   4.080
30796SOL     OW94394   9.092   2.478   4.924
30796SOL    HW194395   9.061   2.420   4.994
30796SOL    HW294396   9.176   2.436   4.896
30797SOL     OW94397   7.691   3.395   5.464
30797SOL    HW194398   7.687   3.475   5.519
30797SOL    HW294399   7.707   3.325   5.528
30798SOL     OW94400   8.132   2.342   4.986
30798SOL    HW194401   8.087   2.266   4.946
30798SOL    HW294402   8.134   2.408   4.913
30799SOL     OW94403   8.378   3.538   5.198
30799SOL    HW194404   8.361   3.507   5.108
30799SOL    HW294405   8.378   3.636   5.187
30800SOL     OW94406   7.894   2.330   3.924
30800SOL    HW194407   7.958   2.402   3.932
30800SOL    HW294408   7.811   2.380   3.922
30801SOL     OW94409   7.560   2.994   5.190
30801SOL    HW194410   7.577   2.941   5.270
30801SOL    HW294411   7.594   2.936   5.119
30802SOL     OW94412   8.773   2.891   4.961
30802SOL    HW194413   8.793   2.842   4.880
30802SOL    HW294414   8.707   2.955   4.928
30803SOL     OW94415   8.759   2.716   4.014
30803SOL    HW194416   8.679   2.697   4.064
30803SOL    HW294417   8.730   2.713   3.921
30804SOL     OW94418   9.219   3.608   4.861
30804SOL    HW194419   9.285   3.630   4.793
30804SOL    HW294420   9.206   3.512   4.845
30805SOL     OW94421   8.688   3.593   4.850
30805SOL    HW194422   8.745   3.613   4.775
30805SOL    HW294423   8.696   3.496   4.858
30806SOL     OW94424   7.543   3.110   4.745
30806SOL    HW194425   7.520   3.130   4.839
30806SOL    HW294426   7.456   3.097   4.706
30807SOL     OW94427   8.114   3.539   5.431
30807SOL    HW194428   8.045   3.588   5.384
30807SOL    HW294429   8.195   3.576   5.393
30808SOL     OW94430   9.136   1.972   4.217
30808SOL    HW194431   9.224   1.988   4.180
30808SOL    HW294432   9.150   1.899   4.280
30809SOL     OW94433   8.818   3.439   4.205
30809SOL    HW194434   8.870   3.471   4.128
30809SOL    HW294435   8.771   3.520   4.233
30810SOL     OW94436   7.597   3.652   5.570
30810SOL    HW194437   7.560   3.580   5.624
30810SOL    HW294438   7.626   3.715   5.638
30811SOL     OW94439   8.710   2.773   4.388
30811SOL    HW194440   8.791   2.722   4.405
30811SOL    HW294441   8.745   2.855   4.350
30812SOL     OW94442   8.261   3.126   5.168
30812SOL    HW194443   8.226   3.174   5.246
30812SOL    HW294444   8.201   3.158   5.099
30813SOL     OW94445   8.115   3.477   3.887
30813SOL    HW194446   8.123   3.484   3.790
30813SOL    HW294447   8.057   3.398   3.896
30814SOL     OW94448   9.073   3.571   5.107
30814SOL    HW194449   9.116   3.587   5.021
30814SOL    HW294450   9.055   3.662   5.138
30815SOL     OW94451   9.284   2.023   4.691
30815SOL    HW194452   9.310   1.935   4.659
30815SOL    HW294453   9.199   2.040   4.646
30816SOL     OW94454   7.695   2.171   4.425
30816SOL    HW194455   7.608   2.214   4.411
30816SOL    HW294456   7.706   2.178   4.521
30817SOL     OW94457   8.630   3.499   3.752
30817SOL    HW194458   8.640   3.405   3.772
30817SOL    HW294459   8.569   3.499   3.676
30818SOL     OW94460   8.270   2.863   5.104
30818SOL    HW194461   8.310   2.869   5.017
30818SOL    HW294462   8.265   2.957   5.132
30819SOL     OW94463   8.349   2.763   3.982
30819SOL    HW194464   8.428   2.803   3.939
30819SOL    HW294465   8.389   2.692   4.035
30820SOL     OW94466   8.992   3.482   3.754
30820SOL    HW194467   8.896   3.492   3.746
30820SOL    HW294468   9.020   3.490   3.660
30821SOL     OW94469   7.800   3.115   5.222
30821SOL    HW194470   7.804   3.193   5.161
30821SOL    HW294471   7.708   3.087   5.214
30822SOL     OW94472   9.063   3.161   5.002
30822SOL    HW194473   9.095   3.135   5.089
30822SOL    HW294474   8.998   3.230   5.026
30823SOL     OW94475   8.455   2.928   4.393
30823SOL    HW194476   8.457   3.008   4.448
30823SOL    HW294477   8.547   2.898   4.400
30824SOL     OW94478   8.481   2.087   4.708
30824SOL    HW194479   8.473   2.039   4.623
30824SOL    HW294480   8.480   2.014   4.772
30825SOL     OW94481   8.046   3.330   4.208
30825SOL    HW194482   8.081   3.314   4.119
30825SOL    HW294483   7.983   3.401   4.193
30826SOL     OW94484   9.150   2.229   5.104
30826SOL    HW194485   9.211   2.306   5.102
30826SOL    HW294486   9.198   2.164   5.048
30827SOL     OW94487   7.719   3.186   4.011
30827SOL    HW194488   7.624   3.184   3.994
30827SOL    HW294489   7.717   3.226   4.102
30828SOL     OW94490   7.581   2.874   5.427
30828SOL    HW194491   7.508   2.863   5.491
30828SOL    HW294492   7.658   2.837   5.475
30829SOL     OW94493   8.126   2.048   5.202
30829SOL    HW194494   8.212   2.011   5.174
30829SOL    HW294495   8.151   2.094   5.284
30830SOL     OW94496   7.546   2.196   3.752
30830SOL    HW194497   7.452   2.196   3.732
30830SOL    HW294498   7.576   2.276   3.706
30831SOL     OW94499   8.907   2.709   5.115
30831SOL    HW194500   8.861   2.773   5.057
30831SOL    HW294501   8.999   2.736   5.104
30832SOL     OW94502   7.487   2.036   4.029
30832SOL    HW194503   7.478   2.124   3.990
30832SOL    HW294504   7.570   2.005   3.988
30833SOL     OW94505   8.656   3.223   3.840
30833SOL    HW194506   8.563   3.195   3.845
30833SOL    HW294507   8.681   3.223   3.935
30834SOL     OW94508   8.077   2.673   5.158
30834SOL    HW194509   8.129   2.756   5.157
30834SOL    HW294510   8.149   2.607   5.164
30835SOL     OW94511   8.962   3.635   4.685
30835SOL    HW194512   8.991   3.682   4.606
30835SOL    HW294513   9.044   3.618   4.733
30836SOL     OW94514   8.173   2.404   5.413
30836SOL    HW194515   8.212   2.465   5.479
30836SOL    HW294516   8.192   2.316   5.448
30837SOL     OW94517   8.914   3.039   5.355
30837SOL    HW194518   8.904   3.048   5.453
30837SOL    HW294519   9.007   3.067   5.342
30838SOL     OW94520   7.825   3.556   5.278
30838SOL    HW194521   7.767   3.633   5.271
30838SOL    HW294522   7.767   3.491   5.320
30839SOL     OW94523   9.157   2.743   4.958
30839SOL    HW194524   9.131   2.654   4.926
30839SOL    HW294525   9.112   2.803   4.895
30840SOL     OW94526   8.641   2.207   4.199
30840SOL    HW194527   8.726   2.168   4.177
30840SOL    HW294528   8.665   2.256   4.281
30841SOL     OW94529   8.045   2.605   4.376
30841SOL    HW194530   8.076   2.696   4.391
30841SOL    HW294531   7.960   2.619   4.332
30842SOL     OW94532   9.218   2.239   5.365
30842SOL    HW194533   9.185   2.248   5.274
30842SOL    HW294534   9.143   2.192   5.406
30843SOL     OW94535   9.190   2.802   5.220
30843SOL    HW194536   9.187   2.899   5.215
30843SOL    HW294537   9.205   2.777   5.127
30844SOL     OW94538   8.302   3.224   3.753
30844SOL    HW194539   8.280   3.240   3.847
30844SOL    HW294540   8.328   3.311   3.720
30845SOL     OW94541   8.107   3.659   4.642
30845SOL    HW194542   8.084   3.753   4.633
30845SOL    HW294543   8.203   3.661   4.653
30846SOL     OW94544   8.277   2.781   4.591
30846SOL    HW194545   8.366   2.747   4.602
30846SOL    HW294546   8.281   2.866   4.637
30847SOL     OW94547   8.534   2.849   3.812
30847SOL    HW194548   8.518   2.910   3.738
30847SOL    HW294549   8.604   2.792   3.774
30848SOL     OW94550   9.325   3.407   4.546
30848SOL    HW194551   9.231   3.411   4.528
30848SOL    HW294552   9.329   3.348   4.623
30849SOL     OW94553   7.703   3.154   5.596
30849SOL    HW194554   7.619   3.129   5.554
30849SOL    HW294555   7.675   3.163   5.689
30850SOL     OW94556   7.532   3.108   4.381
30850SOL    HW194557   7.513   3.059   4.461
30850SOL    HW294558   7.620   3.077   4.358
30851SOL     OW94559   8.126   3.268   5.358
30851SOL    HW194560   8.046   3.216   5.378
30851SOL    HW294561   8.098   3.360   5.376
30852SOL     OW94562   9.268   2.029   4.956
30852SOL    HW194563   9.288   1.935   4.967
30852SOL    HW294564   9.275   2.040   4.859
30853SOL     OW94565   7.873   2.296   4.259
30853SOL    HW194566   7.919   2.223   4.216
30853SOL    HW294567   7.820   2.253   4.328
30854SOL     OW94568   9.167   3.352   4.809
30854SOL    HW194569   9.082   3.330   4.766
30854SOL    HW294570   9.167   3.288   4.882
30855SOL     OW94571   7.778   2.401   5.013
30855SOL    HW194572   7.855   2.364   5.058
30855SOL    HW294573   7.793   2.377   4.919
30856SOL     OW94574   8.254   3.476   4.421
30856SOL    HW194575   8.264   3.521   4.336
30856SOL    HW294576   8.170   3.428   4.412
30857SOL     OW94577   8.890   2.099   4.818
30857SOL    HW194578   8.931   2.031   4.872
30857SOL    HW294579   8.839   2.151   4.885
30858SOL     OW94580   8.465   1.857   4.882
30858SOL    HW194581   8.410   1.780   4.863
30858SOL    HW294582   8.555   1.819   4.874
30859SOL     OW94583   8.249   3.188   4.029
30859SOL    HW194584   8.212   3.111   4.073
30859SOL    HW294585   8.312   3.221   4.097
30860SOL     OW94586   8.052   3.412   5.013
30860SOL    HW194587   8.033   3.499   5.052
30860SOL    HW294588   8.142   3.424   4.978
30861SOL     OW94589   8.779   1.885   3.933
30861SOL    HW194590   8.791   1.844   3.846
30861SOL    HW294591   8.686   1.858   3.951
30862SOL     OW94592   8.761   2.329   4.416
30862SOL    HW194593   8.704   2.408   4.425
30862SOL    HW294594   8.742   2.282   4.500
30863SOL     OW94595   9.041   2.057   4.576
30863SOL    HW194596   8.973   2.068   4.645
30863SOL    HW294597   9.041   2.145   4.535
30864SOL     OW94598   7.490   2.932   4.019
30864SOL    HW194599   7.585   2.925   4.005
30864SOL    HW294600   7.468   2.841   4.048
30865SOL     OW94601   8.322   3.511   4.055
30865SOL    HW194602   8.244   3.501   3.998
30865SOL    HW294603   8.300   3.589   4.111
30866SOL     OW94604   7.681   2.497   5.716
30866SOL    HW194605   7.590   2.481   5.745
30866SOL    HW294606   7.679   2.480   5.620
30867SOL     OW94607   7.676   2.144   6.592
30867SOL    HW194608   7.701   2.117   6.682
30867SOL    HW294609   7.591   2.097   6.581
30868SOL     OW94610   7.453   2.258   6.204
30868SOL    HW194611   7.373   2.279   6.257
30868SOL    HW294612   7.426   2.178   6.158
30869SOL     OW94613   7.969   3.147   6.830
30869SOL    HW194614   8.010   3.114   6.749
30869SOL    HW294615   7.995   3.240   6.832
30870SOL     OW94616   8.979   3.394   6.298
30870SOL    HW194617   8.938   3.368   6.382
30870SOL    HW294618   8.904   3.395   6.235
30871SOL     OW94619   8.582   2.538   6.294
30871SOL    HW194620   8.607   2.629   6.269
30871SOL    HW294621   8.540   2.555   6.380
30872SOL     OW94622   9.222   2.479   5.825
30872SOL    HW194623   9.199   2.473   5.730
30872SOL    HW294624   9.181   2.398   5.859
30873SOL     OW94625   8.330   2.616   7.384
30873SOL    HW194626   8.294   2.674   7.452
30873SOL    HW294627   8.353   2.679   7.312
30874SOL     OW94628   8.143   2.881   6.234
30874SOL    HW194629   8.207   2.855   6.303
30874SOL    HW294630   8.077   2.930   6.286
30875SOL     OW94631   8.205   2.998   7.356
30875SOL    HW194632   8.210   3.086   7.398
30875SOL    HW294633   8.140   2.952   7.414
30876SOL     OW94634   7.751   3.306   6.665
30876SOL    HW194635   7.696   3.246   6.612
30876SOL    HW294636   7.810   3.347   6.598
30877SOL     OW94637   8.915   3.357   6.970
30877SOL    HW194638   8.968   3.439   6.976
30877SOL    HW294639   8.843   3.374   7.033
30878SOL     OW94640   7.883   2.265   7.108
30878SOL    HW194641   7.960   2.206   7.106
30878SOL    HW294642   7.810   2.208   7.081
30879SOL     OW94643   9.037   2.324   6.337
30879SOL    HW194644   8.949   2.333   6.295
30879SOL    HW294645   9.082   2.400   6.299
30880SOL     OW94646   7.667   3.585   6.061
30880SOL    HW194647   7.708   3.660   6.108
30880SOL    HW294648   7.714   3.585   5.976
30881SOL     OW94649   8.581   3.220   7.267
30881SOL    HW194650   8.617   3.209   7.356
30881SOL    HW294651   8.535   3.135   7.256
30882SOL     OW94652   7.675   3.310   6.103
30882SOL    HW194653   7.679   3.406   6.115
30882SOL    HW294654   7.617   3.279   6.174
30883SOL     OW94655   7.720   2.947   6.479
30883SOL    HW194656   7.723   2.872   6.539
30883SOL    HW294657   7.669   3.012   6.530
30884SOL     OW94658   8.042   3.663   6.993
30884SOL    HW194659   7.973   3.632   7.054
30884SOL    HW294660   8.062   3.752   7.027
30885SOL     OW94661   8.022   2.855   5.703
30885SOL    HW194662   8.068   2.911   5.636
30885SOL    HW294663   8.063   2.887   5.785
30886SOL     OW94664   9.056   1.970   7.075
30886SOL    HW194665   9.026   2.054   7.039
30886SOL    HW294666   9.052   1.986   7.170
30887SOL     OW94667   7.564   2.506   6.144
30887SOL    HW194668   7.534   2.415   6.161
30887SOL    HW294669   7.559   2.549   6.231
30888SOL     OW94670   9.297   3.613   5.920
30888SOL    HW194671   9.364   3.600   5.990
30888SOL    HW294672   9.312   3.706   5.897
30889SOL     OW94673   7.521   3.443   5.728
30889SOL    HW194674   7.483   3.356   5.743
30889SOL    HW294675   7.476   3.498   5.795
30890SOL     OW94676   9.136   2.756   6.217
30890SOL    HW194677   9.208   2.729   6.158
30890SOL    HW294678   9.099   2.831   6.168
30891SOL     OW94679   9.093   2.976   6.047
30891SOL    HW194680   9.179   2.981   6.003
30891SOL    HW294681   9.098   3.049   6.112
30892SOL     OW94682   7.576   2.611   7.172
30892SOL    HW194683   7.669   2.629   7.188
30892SOL    HW294684   7.532   2.685   7.217
30893SOL     OW94685   8.050   3.267   6.355
30893SOL    HW194686   8.018   3.175   6.361
30893SOL    HW294687   8.038   3.284   6.260
30894SOL     OW94688   8.732   3.093   7.014
30894SOL    HW194689   8.768   3.019   6.962
30894SOL    HW294690   8.781   3.085   7.097
30895SOL     OW94691   8.281   1.863   6.084
30895SOL    HW194692   8.313   1.956   6.077
30895SOL    HW294693   8.186   1.876   6.098
30896SOL     OW94694   7.632   2.840   6.878
30896SOL    HW194695   7.716   2.808   6.839
30896SOL    HW294696   7.566   2.802   6.818
30897SOL     OW94697   8.994   2.836   5.787
30897SOL    HW194698   8.912   2.792   5.815
30897SOL    HW294699   9.028   2.870   5.871
30898SOL     OW94700   8.618   3.669   7.202
30898SOL    HW194701   8.622   3.732   7.129
30898SOL    HW294702   8.644   3.586   7.158
30899SOL     OW94703   7.787   2.090   7.357
30899SOL    HW194704   7.840   2.166   7.384
30899SOL    HW294705   7.699   2.116   7.391
30900SOL     OW94706   8.914   3.289   6.552
30900SOL    HW194707   8.853   3.311   6.625
30900SOL    HW294708   8.878   3.204   6.521
30901SOL     OW94709   9.118   3.587   6.184
30901SOL    HW194710   9.093   3.556   6.096
30901SOL    HW294711   9.074   3.519   6.240
30902SOL     OW94712   8.038   2.580   5.844
30902SOL    HW194713   8.039   2.669   5.806
30902SOL    HW294714   7.971   2.587   5.915
30903SOL     OW94715   8.713   2.219   6.516
30903SOL    HW194716   8.625   2.182   6.534
30903SOL    HW294717   8.771   2.164   6.573
30904SOL     OW94718   9.022   3.504   5.882
30904SOL    HW194719   9.117   3.523   5.890
30904SOL    HW294720   9.015   3.495   5.784
30905SOL     OW94721   8.244   2.489   7.055
30905SOL    HW194722   8.225   2.450   7.143
30905SOL    HW294723   8.202   2.426   6.994
30906SOL     OW94724   8.853   2.338   7.248
30906SOL    HW194725   8.852   2.397   7.325
30906SOL    HW294726   8.902   2.260   7.281
30907SOL     OW94727   8.422   2.748   7.160
30907SOL    HW194728   8.453   2.662   7.125
30907SOL    HW294729   8.371   2.784   7.085
30908SOL     OW94730   8.445   2.268   6.816
30908SOL    HW194731   8.366   2.296   6.865
30908SOL    HW294732   8.406   2.225   6.739
30909SOL     OW94733   8.495   2.534   5.995
30909SOL    HW194734   8.504   2.560   6.088
30909SOL    HW294735   8.406   2.493   5.995
30910SOL     OW94736   7.552   2.663   6.368
30910SOL    HW194737   7.620   2.672   6.437
30910SOL    HW294738   7.509   2.750   6.371
30911SOL     OW94739   7.550   3.688   7.157
30911SOL    HW194740   7.563   3.677   7.254
30911SOL    HW294741   7.455   3.702   7.150
30912SOL     OW94742   8.336   2.239   5.792
30912SOL    HW194743   8.374   2.297   5.724
30912SOL    HW294744   8.352   2.152   5.755
30913SOL     OW94745   9.172   2.459   7.414
30913SOL    HW194746   9.132   2.534   7.366
30913SOL    HW294747   9.185   2.395   7.343
30914SOL     OW94748   8.808   3.007   6.146
30914SOL    HW194749   8.888   3.001   6.093
30914SOL    HW294750   8.757   3.073   6.096
30915SOL     OW94751   7.999   2.068   6.486
30915SOL    HW194752   8.010   2.078   6.582
30915SOL    HW294753   7.983   2.159   6.457
30916SOL     OW94754   8.445   3.308   6.072
30916SOL    HW194755   8.402   3.368   6.008
30916SOL    HW294756   8.444   3.360   6.153
30917SOL     OW94757   7.793   3.665   6.455
30917SOL    HW194758   7.835   3.578   6.472
30917SOL    HW294759   7.870   3.723   6.464
30918SOL     OW94760   9.244   2.898   6.465
30918SOL    HW194761   9.197   2.890   6.381
30918SOL    HW294762   9.171   2.905   6.529
30919SOL     OW94763   8.669   3.424   7.090
30919SOL    HW194764   8.648   3.359   7.160
30919SOL    HW294765   8.615   3.387   7.018
30920SOL     OW94766   7.751   2.812   5.828
30920SOL    HW194767   7.828   2.849   5.782
30920SOL    HW294768   7.727   2.738   5.771
30921SOL     OW94769   8.931   2.610   6.292
30921SOL    HW194770   8.920   2.617   6.388
30921SOL    HW294771   9.014   2.661   6.277
30922SOL     OW94772   7.892   3.131   7.298
30922SOL    HW194773   7.847   3.150   7.215
30922SOL    HW294774   7.823   3.146   7.364
30923SOL     OW94775   8.565   3.610   5.833
30923SOL    HW194776   8.482   3.570   5.865
30923SOL    HW294777   8.579   3.566   5.748
30924SOL     OW94778   7.625   2.148   7.072
30924SOL    HW194779   7.552   2.204   7.104
30924SOL    HW294780   7.623   2.074   7.135
30925SOL     OW94781   9.070   3.226   5.685
30925SOL    HW194782   9.032   3.309   5.652
30925SOL    HW294783   9.009   3.159   5.650
30926SOL     OW94784   7.903   3.601   5.899
30926SOL    HW194785   7.953   3.652   5.965
30926SOL    HW294786   7.974   3.566   5.842
30927SOL     OW94787   8.838   2.001   6.040
30927SOL    HW194788   8.821   1.955   5.956
30927SOL    HW294789   8.935   2.001   6.042
30928SOL     OW94790   7.692   3.658   6.808
30928SOL    HW194791   7.746   3.583   6.836
30928SOL    HW294792   7.666   3.634   6.718
30929SOL     OW94793   8.409   3.569   6.472
30929SOL    HW194794   8.465   3.502   6.512
30929SOL    HW294795   8.362   3.517   6.404
30930SOL     OW94796   7.841   2.554   6.053
30930SOL    HW194797   7.864   2.461   6.074
30930SOL    HW294798   7.746   2.554   6.075
30931SOL     OW94799   8.986   2.111   7.329
30931SOL    HW194800   8.987   2.142   7.423
30931SOL    HW294801   8.940   2.026   7.344
30932SOL     OW94802   8.079   1.991   5.680
30932SOL    HW194803   8.151   1.931   5.704
30932SOL    HW294804   8.028   1.937   5.616
30933SOL     OW94805   8.226   2.125   7.311
30933SOL    HW194806   8.303   2.064   7.321
30933SOL    HW294807   8.180   2.114   7.395
30934SOL     OW94808   8.334   3.425   6.784
30934SOL    HW194809   8.321   3.386   6.695
30934SOL    HW294810   8.387   3.356   6.828
30935SOL     OW94811   8.788   2.447   7.011
30935SOL    HW194812   8.823   2.413   7.096
30935SOL    HW294813   8.833   2.533   7.003
30936SOL     OW94814   8.275   3.317   6.519
30936SOL    HW194815   8.356   3.274   6.488
30936SOL    HW294816   8.207   3.272   6.467
30937SOL     OW94817   8.395   2.368   6.506
30937SOL    HW194818   8.367   2.359   6.412
30937SOL    HW294819   8.422   2.277   6.526
30938SOL     OW94820   8.003   1.908   6.091
30938SOL    HW194821   7.928   1.919   6.152
30938SOL    HW294822   7.991   1.986   6.032
30939SOL     OW94823   8.897   3.038   5.618
30939SOL    HW194824   8.921   2.965   5.679
30939SOL    HW294825   8.806   3.060   5.644
30940SOL     OW94826   7.727   1.919   5.790
30940SOL    HW194827   7.785   1.992   5.762
30940SOL    HW294828   7.791   1.855   5.825
30941SOL     OW94829   8.377   2.115   6.084
30941SOL    HW194830   8.357   2.161   6.001
30941SOL    HW294831   8.473   2.132   6.090
30942SOL     OW94832   8.531   2.529   7.058
30942SOL    HW194833   8.474   2.451   7.069
30942SOL    HW294834   8.620   2.490   7.052
30943SOL     OW94835   8.694   3.432   6.348
30943SOL    HW194836   8.685   3.506   6.285
30943SOL    HW294837   8.744   3.473   6.419
30944SOL     OW94838   7.927   3.023   6.321
30944SOL    HW194839   7.854   2.990   6.377
30944SOL    HW294840   7.892   3.003   6.231
30945SOL     OW94841   8.720   3.669   6.191
30945SOL    HW194842   8.765   3.736   6.136
30945SOL    HW294843   8.663   3.723   6.247
30946SOL     OW94844   8.508   2.404   5.595
30946SOL    HW194845   8.452   2.484   5.582
30946SOL    HW294846   8.572   2.434   5.661
30947SOL     OW94847   7.506   2.427   6.987
30947SOL    HW194848   7.598   2.418   6.958
30947SOL    HW294849   7.512   2.505   7.046
30948SOL     OW94850   8.020   2.090   6.755
30948SOL    HW194851   8.063   2.019   6.804
30948SOL    HW294852   7.927   2.080   6.784
30949SOL     OW94853   8.332   2.327   6.255
30949SOL    HW194854   8.281   2.379   6.191
30949SOL    HW294855   8.335   2.239   6.213
30950SOL     OW94856   8.482   1.926   6.356
30950SOL    HW194857   8.429   1.911   6.277
30950SOL    HW294858   8.459   1.848   6.411
30951SOL     OW94859   8.855   3.036   6.473
30951SOL    HW194860   8.780   2.977   6.489
30951SOL    HW294861   8.862   3.032   6.377
30952SOL     OW94862   8.931   2.406   6.615
30952SOL    HW194863   8.848   2.355   6.620
30952SOL    HW294864   8.962   2.381   6.525
30953SOL     OW94865   9.287   2.690   5.982
30953SOL    HW194866   9.347   2.635   6.036
30953SOL    HW294867   9.266   2.627   5.910
30954SOL     OW94868   7.942   3.274   5.710
30954SOL    HW194869   7.859   3.271   5.761
30954SOL    HW294870   7.922   3.216   5.635
30955SOL     OW94871   9.118   3.154   6.253
30955SOL    HW194872   9.215   3.164   6.250
30955SOL    HW294873   9.085   3.243   6.271
30956SOL     OW94874   8.849   2.458   5.644
30956SOL    HW194875   8.806   2.423   5.725
30956SOL    HW294876   8.942   2.436   5.661
30957SOL     OW94877   7.971   2.099   5.903
30957SOL    HW194878   8.016   2.070   5.822
30957SOL    HW294879   7.942   2.188   5.876
30958SOL     OW94880   9.180   3.092   7.154
30958SOL    HW194881   9.270   3.057   7.157
30958SOL    HW294882   9.197   3.186   7.173
30959SOL     OW94883   8.510   3.250   6.948
30959SOL    HW194884   8.432   3.201   6.979
30959SOL    HW294885   8.582   3.189   6.975
30960SOL     OW94886   9.067   3.490   7.228
30960SOL    HW194887   9.072   3.523   7.136
30960SOL    HW294888   9.135   3.421   7.227
30961SOL     OW94889   8.580   3.097   6.692
30961SOL    HW194890   8.492   3.083   6.727
30961SOL    HW294891   8.559   3.132   6.603
30962SOL     OW94892   9.047   2.964   6.667
30962SOL    HW194893   9.050   3.024   6.744
30962SOL    HW294894   8.992   3.015   6.605
30963SOL     OW94895   8.363   1.986   6.964
30963SOL    HW194896   8.400   1.947   6.882
30963SOL    HW294897   8.444   2.017   7.009
30964SOL     OW94898   8.469   2.974   7.325
30964SOL    HW194899   8.377   3.001   7.344
30964SOL    HW294900   8.453   2.900   7.264
30965SOL     OW94901   8.159   2.927   5.933
30965SOL    HW194902   8.143   2.904   6.026
30965SOL    HW294903   8.236   2.870   5.910
30966SOL     OW94904   7.866   2.678   6.854
30966SOL    HW194905   7.945   2.672   6.913
30966SOL    HW294906   7.831   2.587   6.859
30967SOL     OW94907   8.725   2.245   6.842
30967SOL    HW194908   8.741   2.321   6.903
30967SOL    HW294909   8.631   2.257   6.818
30968SOL     OW94910   7.517   3.438   6.912
30968SOL    HW194911   7.518   3.532   6.887
30968SOL    HW294912   7.613   3.419   6.915
30969SOL     OW94913   7.812   2.958   6.079
30969SOL    HW194914   7.809   3.023   6.007
30969SOL    HW294915   7.795   2.875   6.033
30970SOL     OW94916   7.987   2.407   6.430
30970SOL    HW194917   8.015   2.467   6.358
30970SOL    HW294918   8.046   2.435   6.502
30971SOL     OW94919   8.673   3.194   5.974
30971SOL    HW194920   8.718   3.271   6.013
30971SOL    HW294921   8.582   3.212   6.001
30972SOL     OW94922   8.737   3.327   6.755
30972SOL    HW194923   8.776   3.319   6.843
30972SOL    HW294924   8.671   3.255   6.755
30973SOL     OW94925   9.037   2.467   6.065
30973SOL    HW194926   8.981   2.524   6.121
30973SOL    HW294927   9.066   2.528   5.995
30974SOL     OW94928   7.781   3.385   6.910
30974SOL    HW194929   7.771   3.344   6.821
30974SOL    HW294930   7.876   3.405   6.906
30975SOL     OW94931   7.887   2.589   7.203
30975SOL    HW194932   7.951   2.632   7.144
30975SOL    HW294933   7.926   2.501   7.213
30976SOL     OW94934   9.074   2.654   7.255
30976SOL    HW194935   8.981   2.685   7.248
30976SOL    HW294936   9.116   2.703   7.182
30977SOL     OW94937   8.436   1.966   7.345
30977SOL    HW194938   8.511   2.025   7.359
30977SOL    HW294939   8.479   1.894   7.295
30978SOL     OW94940   7.949   1.871   7.351
30978SOL    HW194941   7.913   1.819   7.277
30978SOL    HW294942   7.895   1.952   7.346
30979SOL     OW94943   8.001   2.766   6.623
30979SOL    HW194944   8.068   2.837   6.634
30979SOL    HW294945   7.974   2.751   6.715
30980SOL     OW94946   8.831   2.688   6.586
30980SOL    HW194947   8.735   2.682   6.579
30980SOL    HW294948   8.856   2.598   6.613
30981SOL     OW94949   8.678   2.379   5.852
30981SOL    HW194950   8.676   2.304   5.914
30981SOL    HW294951   8.617   2.441   5.897
30982SOL     OW94952   7.762   2.058   6.839
30982SOL    HW194953   7.707   2.081   6.916
30982SOL    HW294954   7.737   1.965   6.824
30983SOL     OW94955   7.489   3.167   6.874
30983SOL    HW194956   7.526   3.149   6.960
30983SOL    HW294957   7.491   3.265   6.871
30984SOL     OW94958   8.161   2.503   6.617
30984SOL    HW194959   8.249   2.479   6.583
30984SOL    HW294960   8.154   2.598   6.603
30985SOL     OW94961   9.206   2.822   7.436
30985SOL    HW194962   9.144   2.775   7.377
30985SOL    HW294963   9.155   2.825   7.517
30986SOL     OW94964   7.749   1.927   6.204
30986SOL    HW194965   7.719   2.017   6.229
30986SOL    HW294966   7.755   1.884   6.292
30987SOL     OW94967   9.043   2.237   5.927
30987SOL    HW194968   9.075   2.166   5.985
30987SOL    HW294969   9.036   2.313   5.988
30988SOL     OW94970   8.514   2.608   6.555
30988SOL    HW194971   8.486   2.630   6.646
30988SOL    HW294972   8.481   2.517   6.549
30989SOL     OW94973   8.418   3.432   7.286
30989SOL    HW194974   8.412   3.481   7.201
30989SOL    HW294975   8.457   3.347   7.258
30990SOL     OW94976   9.292   3.344   7.185
30990SOL    HW194977   9.315   3.377   7.097
30990SOL    HW294978   9.368   3.373   7.238
30991SOL     OW94979   7.779   2.761   7.372
30991SOL    HW194980   7.851   2.795   7.430
30991SOL    HW294981   7.824   2.686   7.328
30992SOL     OW94982   8.947   2.111   5.709
30992SOL    HW194983   8.879   2.057   5.751
30992SOL    HW294984   8.989   2.155   5.786
30993SOL     OW94985   8.726   2.696   5.609
30993SOL    HW194986   8.768   2.609   5.619
30993SOL    HW294987   8.764   2.724   5.523
30994SOL     OW94988   8.520   3.229   6.433
30994SOL    HW194989   8.524   3.148   6.377
30994SOL    HW294990   8.585   3.288   6.390
30995SOL     OW94991   7.726   2.683   6.589
30995SOL    HW194992   7.820   2.707   6.583
30995SOL    HW294993   7.733   2.587   6.602
30996SOL     OW94994   7.769   2.400   6.582
30996SOL    HW194995   7.743   2.307   6.574
30996SOL    HW294996   7.839   2.407   6.514
30997SOL     OW94997   8.599   2.240   7.271
30997SOL    HW194998   8.558   2.289   7.346
30997SOL    HW294999   8.691   2.270   7.277
30998SOL     OW95000   8.605   2.073   7.057
30998SOL    HW195001   8.607   2.131   7.136
30998SOL    HW295002   8.659   2.122   6.994
30999SOL     OW95003   7.449   3.177   5.785
30999SOL    HW195004   7.357   3.187   5.754
30999SOL    HW295005   7.451   3.085   5.818
31000SOL     OW95006   7.551   3.637   6.548
31000SOL    HW195007   7.522   3.565   6.488
31000SOL    HW295008   7.640   3.658   6.510
31001SOL     OW95009   7.927   3.442   6.517
31001SOL    HW195010   7.995   3.505   6.547
31001SOL    HW295011   7.980   3.379   6.466
31002SOL     OW95012   8.429   2.631   6.812
31002SOL    HW195013   8.457   2.591   6.896
31002SOL    HW295014   8.354   2.686   6.839
31003SOL     OW95015   7.475   2.379   6.699
31003SOL    HW195016   7.553   2.372   6.642
31003SOL    HW295017   7.516   2.394   6.786
31004SOL     OW95018   7.669   2.374   7.295
31004SOL    HW195019   7.735   2.342   7.231
31004SOL    HW295020   7.623   2.443   7.244
31005SOL     OW95021   8.827   2.773   7.235
31005SOL    HW195022   8.840   2.869   7.239
31005SOL    HW295023   8.779   2.762   7.152
31006SOL     OW95024   8.248   2.436   5.962
31006SOL    HW195025   8.262   2.366   5.896
31006SOL    HW295026   8.172   2.485   5.925
31007SOL     OW95027   7.700   3.405   7.302
31007SOL    HW195028   7.686   3.474   7.369
31007SOL    HW295029   7.699   3.324   7.357
31008SOL     OW95030   8.152   2.338   6.845
31008SOL    HW195031   8.102   2.261   6.814
31008SOL    HW295032   8.138   2.403   6.773
31009SOL     OW95033   8.370   3.559   7.054
31009SOL    HW195034   8.354   3.530   6.963
31009SOL    HW295035   8.366   3.656   7.048
31010SOL     OW95036   7.896   2.335   5.793
31010SOL    HW195037   7.957   2.410   5.787
31010SOL    HW295038   7.811   2.380   5.786
31011SOL     OW95039   8.777   2.899   6.829
31011SOL    HW195040   8.794   2.855   6.745
31011SOL    HW295041   8.708   2.963   6.803
31012SOL     OW95042   8.758   2.720   5.877
31012SOL    HW195043   8.675   2.693   5.919
31012SOL    HW295044   8.735   2.721   5.782
31013SOL     OW95045   9.206   3.611   6.717
31013SOL    HW195046   9.279   3.631   6.656
31013SOL    HW295047   9.193   3.515   6.701
31014SOL     OW95048   8.684   3.588   6.699
31014SOL    HW195049   8.773   3.610   6.670
31014SOL    HW295050   8.691   3.492   6.718
31015SOL     OW95051   7.548   3.109   6.615
31015SOL    HW195052   7.515   3.132   6.704
31015SOL    HW295053   7.473   3.061   6.577
31016SOL     OW95054   8.145   3.497   7.334
31016SOL    HW195055   8.113   3.580   7.296
31016SOL    HW295056   8.234   3.490   7.297
31017SOL     OW95057   9.125   1.997   6.077
31017SOL    HW195058   9.202   1.986   6.019
31017SOL    HW295059   9.126   1.915   6.130
31018SOL     OW95060   8.823   3.439   6.069
31018SOL    HW195061   8.869   3.461   5.986
31018SOL    HW295062   8.776   3.522   6.089
31019SOL     OW95063   7.603   3.654   7.419
31019SOL    HW195064   7.558   3.584   7.471
31019SOL    HW295065   7.648   3.703   7.490
31020SOL     OW95066   8.697   2.777   6.243
31020SOL    HW195067   8.780   2.728   6.256
31020SOL    HW295068   8.731   2.860   6.203
31021SOL     OW95069   8.275   3.123   7.033
31021SOL    HW195070   8.230   3.161   7.111
31021SOL    HW295071   8.213   3.144   6.962
31022SOL     OW95072   8.110   3.476   5.746
31022SOL    HW195073   8.123   3.500   5.653
31022SOL    HW295074   8.054   3.396   5.736
31023SOL     OW95075   9.071   3.578   6.974
31023SOL    HW195076   9.115   3.591   6.889
31023SOL    HW295077   9.053   3.671   7.001
31024SOL     OW95078   9.287   2.027   6.569
31024SOL    HW195079   9.307   1.938   6.536
31024SOL    HW295080   9.203   2.049   6.524
31025SOL     OW95081   7.695   2.175   6.300
31025SOL    HW195082   7.612   2.219   6.276
31025SOL    HW295083   7.698   2.186   6.396
31026SOL     OW95084   8.649   3.473   5.611
31026SOL    HW195085   8.663   3.380   5.636
31026SOL    HW295086   8.582   3.468   5.540
31027SOL     OW95087   8.268   2.856   6.968
31027SOL    HW195088   8.247   2.888   6.877
31027SOL    HW295089   8.283   2.942   7.012
31028SOL     OW95090   8.358   2.767   5.863
31028SOL    HW195091   8.432   2.808   5.813
31028SOL    HW295092   8.400   2.691   5.904
31029SOL     OW95093   9.003   3.486   5.613
31029SOL    HW195094   8.907   3.499   5.610
31029SOL    HW295095   9.026   3.485   5.517
31030SOL     OW95096   7.756   3.126   7.042
31030SOL    HW195097   7.772   3.220   7.058
31030SOL    HW295098   7.793   3.121   6.952
31031SOL     OW95099   9.057   3.171   6.861
31031SOL    HW195100   9.093   3.141   6.945
31031SOL    HW295101   8.993   3.240   6.892
31032SOL     OW95102   8.500   2.981   6.313
31032SOL    HW195103   8.422   2.935   6.349
31032SOL    HW295104   8.549   2.907   6.272
31033SOL     OW95105   8.480   2.094   6.569
31033SOL    HW195106   8.473   2.047   6.483
31033SOL    HW295107   8.481   2.019   6.631
31034SOL     OW95108   8.067   3.341   6.086
31034SOL    HW195109   8.107   3.300   6.008
31034SOL    HW295110   7.989   3.384   6.048
31035SOL     OW95111   9.164   2.247   6.953
31035SOL    HW195112   9.242   2.305   6.967
31035SOL    HW295113   9.206   2.166   6.917
31036SOL     OW95114   7.702   3.234   5.859
31036SOL    HW195115   7.605   3.237   5.843
31036SOL    HW295116   7.704   3.262   5.953
31037SOL     OW95117   7.571   2.880   7.277
31037SOL    HW195118   7.493   2.864   7.333
31037SOL    HW295119   7.644   2.843   7.333
31038SOL     OW95120   8.118   2.051   7.074
31038SOL    HW195121   8.203   2.037   7.028
31038SOL    HW295122   8.149   2.080   7.162
31039SOL     OW95123   7.554   2.200   5.608
31039SOL    HW195124   7.459   2.200   5.596
31039SOL    HW295125   7.581   2.275   5.552
31040SOL     OW95126   8.920   2.704   6.963
31040SOL    HW195127   8.872   2.778   6.921
31040SOL    HW295128   9.004   2.746   6.989
31041SOL     OW95129   7.489   2.028   5.876
31041SOL    HW195130   7.493   2.118   5.841
31041SOL    HW295131   7.574   1.992   5.843
31042SOL     OW95132   8.665   3.198   5.700
31042SOL    HW195133   8.572   3.174   5.700
31042SOL    HW295134   8.685   3.201   5.796
31043SOL     OW95135   8.067   2.678   7.022
31043SOL    HW195136   8.126   2.755   7.017
31043SOL    HW295137   8.134   2.608   7.034
31044SOL     OW95138   8.953   3.639   6.552
31044SOL    HW195139   8.982   3.679   6.469
31044SOL    HW295140   9.037   3.616   6.595
31045SOL     OW95141   8.181   2.402   7.293
31045SOL    HW195142   8.224   2.472   7.344
31045SOL    HW295143   8.223   2.320   7.322
31046SOL     OW95144   8.911   3.042   7.214
31046SOL    HW195145   8.902   3.048   7.312
31046SOL    HW295146   9.005   3.062   7.202
31047SOL     OW95147   7.822   3.597   7.151
31047SOL    HW195148   7.735   3.637   7.131
31047SOL    HW295149   7.794   3.513   7.191
31048SOL     OW95150   9.147   2.715   6.771
31048SOL    HW195151   9.054   2.709   6.746
31048SOL    HW295152   9.164   2.808   6.747
31049SOL     OW95153   8.650   2.189   6.065
31049SOL    HW195154   8.716   2.118   6.054
31049SOL    HW295155   8.689   2.241   6.136
31050SOL     OW95156   8.052   2.603   6.243
31050SOL    HW195157   8.075   2.697   6.242
31050SOL    HW295158   7.982   2.599   6.177
31051SOL     OW95159   9.211   2.240   7.218
31051SOL    HW195160   9.175   2.243   7.128
31051SOL    HW295161   9.143   2.188   7.265
31052SOL     OW95162   9.169   2.808   7.057
31052SOL    HW195163   9.185   2.901   7.078
31052SOL    HW295164   9.223   2.794   6.978
31053SOL     OW95165   8.330   3.215   5.609
31053SOL    HW195166   8.287   3.236   5.693
31053SOL    HW295167   8.342   3.302   5.567
31054SOL     OW95168   8.092   3.659   6.533
31054SOL    HW195169   8.089   3.753   6.509
31054SOL    HW295170   8.185   3.636   6.520
31055SOL     OW95171   8.329   2.802   6.425
31055SOL    HW195172   8.380   2.733   6.469
31055SOL    HW295173   8.309   2.863   6.499
31056SOL     OW95174   8.549   2.869   5.694
31056SOL    HW195175   8.511   2.916   5.618
31056SOL    HW295176   8.608   2.805   5.649
31057SOL     OW95177   9.314   3.420   6.428
31057SOL    HW195178   9.220   3.410   6.406
31057SOL    HW295179   9.327   3.352   6.495
31058SOL     OW95180   7.677   3.182   7.450
31058SOL    HW195181   7.618   3.106   7.448
31058SOL    HW295182   7.679   3.202   7.545
31059SOL     OW95183   7.543   3.117   6.258
31059SOL    HW195184   7.543   3.060   6.336
31059SOL    HW295185   7.625   3.088   6.214
31060SOL     OW95186   8.118   3.258   7.202
31060SOL    HW195187   8.059   3.193   7.244
31060SOL    HW295188   8.110   3.335   7.259
31061SOL     OW95189   9.278   2.034   6.830
31061SOL    HW195190   9.278   1.938   6.844
31061SOL    HW295191   9.286   2.039   6.733
31062SOL     OW95192   7.884   2.289   6.118
31062SOL    HW195193   7.926   2.217   6.070
31062SOL    HW295194   7.844   2.246   6.195
31063SOL     OW95195   9.157   3.352   6.674
31063SOL    HW195196   9.074   3.329   6.629
31063SOL    HW295197   9.153   3.291   6.749
31064SOL     OW95198   7.775   2.397   6.869
31064SOL    HW195199   7.845   2.355   6.923
31064SOL    HW295200   7.796   2.367   6.779
31065SOL     OW95201   8.279   3.455   6.256
31065SOL    HW195202   8.259   3.470   6.163
31065SOL    HW295203   8.202   3.402   6.284
31066SOL     OW95204   8.882   2.099   6.680
31066SOL    HW195205   8.903   2.013   6.716
31066SOL    HW295206   8.832   2.143   6.753
31067SOL     OW95207   8.469   1.861   6.738
31067SOL    HW195208   8.413   1.787   6.709
31067SOL    HW295209   8.558   1.819   6.736
31068SOL     OW95210   8.237   3.198   5.897
31068SOL    HW195211   8.202   3.107   5.894
31068SOL    HW295212   8.306   3.191   5.964
31069SOL     OW95213   8.040   3.432   6.849
31069SOL    HW195214   8.045   3.516   6.900
31069SOL    HW295215   8.132   3.427   6.819
31070SOL     OW95216   8.762   1.892   5.782
31070SOL    HW195217   8.779   1.839   5.704
31070SOL    HW295218   8.672   1.858   5.808
31071SOL     OW95219   8.762   2.338   6.275
31071SOL    HW195220   8.700   2.413   6.269
31071SOL    HW295221   8.731   2.296   6.358
31072SOL     OW95222   9.050   2.072   6.448
31072SOL    HW195223   8.973   2.072   6.506
31072SOL    HW295224   9.042   2.157   6.401
31073SOL     OW95225   7.495   2.926   5.891
31073SOL    HW195226   7.584   2.911   5.855
31073SOL    HW295227   7.475   2.836   5.923
31074SOL     OW95228   8.326   3.507   5.913
31074SOL    HW195229   8.246   3.499   5.858
31074SOL    HW295230   8.310   3.586   5.968
31075SOL     OW95231   7.676   2.485   7.574
31075SOL    HW195232   7.584   2.500   7.597
31075SOL    HW295233   7.679   2.481   7.478
31076SOL     OW95234   7.659   2.152   8.453
31076SOL    HW195235   7.690   2.125   8.541
31076SOL    HW295236   7.579   2.097   8.443
31077SOL     OW95237   7.447   2.279   8.086
31077SOL    HW195238   7.372   2.259   8.143
31077SOL    HW295239   7.462   2.195   8.041
31078SOL     OW95240   8.018   3.157   8.648
31078SOL    HW195241   7.932   3.155   8.604
31078SOL    HW295242   8.024   3.250   8.676
31079SOL     OW95243   8.994   3.393   8.158
31079SOL    HW195244   8.951   3.372   8.244
31079SOL    HW295245   8.920   3.395   8.094
31080SOL     OW95246   8.581   2.539   8.159
31080SOL    HW195247   8.609   2.628   8.132
31080SOL    HW295248   8.542   2.557   8.247
31081SOL     OW95249   9.225   2.472   7.679
31081SOL    HW195250   9.197   2.469   7.585
31081SOL    HW295251   9.161   2.412   7.720
31082SOL     OW95252   8.206   3.035   8.495
31082SOL    HW195253   8.136   3.079   8.547
31082SOL    HW295254   8.231   3.106   8.434
31083SOL     OW95255   8.327   2.609   9.250
31083SOL    HW195256   8.302   2.673   9.317
31083SOL    HW295257   8.352   2.665   9.173
31084SOL     OW95258   8.137   2.880   8.109
31084SOL    HW195259   8.203   2.855   8.176
31084SOL    HW295260   8.072   2.930   8.162
31085SOL     OW95261   8.139   3.017   9.252
31085SOL    HW195262   8.181   3.101   9.277
31085SOL    HW295263   8.050   3.045   9.222
31086SOL     OW95264   7.767   3.285   8.518
31086SOL    HW195265   7.697   3.238   8.469
31086SOL    HW295266   7.813   3.339   8.450
31087SOL     OW95267   8.920   3.352   8.828
31087SOL    HW195268   8.976   3.432   8.837
31087SOL    HW295269   8.849   3.370   8.892
31088SOL     OW95270   7.876   2.277   8.952
31088SOL    HW195271   7.960   2.228   8.949
31088SOL    HW295272   7.809   2.206   8.957
31089SOL     OW95273   9.069   2.302   8.185
31089SOL    HW195274   8.999   2.326   8.123
31089SOL    HW295275   9.047   2.357   8.262
31090SOL     OW95276   7.663   3.575   7.919
31090SOL    HW195277   7.686   3.654   7.973
31090SOL    HW295278   7.729   3.580   7.847
31091SOL     OW95279   8.564   3.207   9.116
31091SOL    HW195280   8.613   3.206   9.199
31091SOL    HW295281   8.525   3.118   9.116
31092SOL     OW95282   7.701   3.291   7.970
31092SOL    HW195283   7.700   3.388   7.969
31092SOL    HW295284   7.632   3.269   8.034
31093SOL     OW95285   7.717   2.937   8.349
31093SOL    HW195286   7.723   2.864   8.412
31093SOL    HW295287   7.665   3.002   8.397
31094SOL     OW95288   8.040   3.659   8.846
31094SOL    HW195289   7.972   3.630   8.909
31094SOL    HW295290   8.064   3.747   8.881
31095SOL     OW95291   9.057   1.963   8.943
31095SOL    HW195292   9.047   2.043   8.890
31095SOL    HW295293   9.064   2.000   9.032
31096SOL     OW95294   7.559   2.528   8.015
31096SOL    HW195295   7.531   2.437   8.035
31096SOL    HW295296   7.559   2.570   8.103
31097SOL     OW95297   9.299   3.602   7.796
31097SOL    HW195298   9.349   3.586   7.878
31097SOL    HW295299   9.320   3.695   7.777
31098SOL     OW95300   7.496   3.456   7.561
31098SOL    HW195301   7.491   3.362   7.584
31098SOL    HW295302   7.459   3.499   7.640
31099SOL     OW95303   9.160   2.791   8.069
31099SOL    HW195304   9.210   2.744   7.999
31099SOL    HW295305   9.102   2.847   8.015
31100SOL     OW95306   9.078   2.983   7.888
31100SOL    HW195307   9.166   2.984   7.847
31100SOL    HW295308   9.089   3.051   7.957
31101SOL     OW95309   7.565   2.605   9.024
31101SOL    HW195310   7.660   2.624   9.025
31101SOL    HW295311   7.532   2.685   9.068
31102SOL     OW95312   8.036   3.270   8.206
31102SOL    HW195313   7.998   3.180   8.213
31102SOL    HW295314   8.037   3.282   8.109
31103SOL     OW95315   8.735   3.090   8.871
31103SOL    HW195316   8.762   3.014   8.816
31103SOL    HW295317   8.793   3.080   8.949
31104SOL     OW95318   8.279   1.860   7.952
31104SOL    HW195319   8.311   1.951   7.940
31104SOL    HW295320   8.182   1.871   7.955
31105SOL     OW95321   7.623   2.837   8.703
31105SOL    HW195322   7.715   2.810   8.688
31105SOL    HW295323   7.572   2.763   8.666
31106SOL     OW95324   8.988   2.829   7.643
31106SOL    HW195325   8.905   2.789   7.674
31106SOL    HW295326   9.027   2.860   7.725
31107SOL     OW95327   8.624   3.661   9.066
31107SOL    HW195328   8.634   3.726   8.995
31107SOL    HW295329   8.649   3.578   9.023
31108SOL     OW95330   7.765   2.118   9.239
31108SOL    HW195331   7.842   2.159   9.280
31108SOL    HW295332   7.693   2.158   9.291
31109SOL     OW95333   8.919   3.290   8.411
31109SOL    HW195334   8.854   3.308   8.482
31109SOL    HW295335   8.890   3.202   8.379
31110SOL     OW95336   9.116   3.599   8.051
31110SOL    HW195337   9.088   3.571   7.963
31110SOL    HW295338   9.077   3.528   8.106
31111SOL     OW95339   8.035   2.568   7.713
31111SOL    HW195340   8.042   2.656   7.671
31111SOL    HW295341   7.963   2.580   7.776
31112SOL     OW95342   8.714   2.195   8.352
31112SOL    HW195343   8.625   2.164   8.379
31112SOL    HW295344   8.770   2.157   8.423
31113SOL     OW95345   9.024   3.513   7.753
31113SOL    HW195346   9.118   3.537   7.756
31113SOL    HW295347   9.013   3.492   7.659
31114SOL     OW95348   8.255   2.486   8.903
31114SOL    HW195349   8.234   2.449   8.992
31114SOL    HW295350   8.206   2.425   8.846
31115SOL     OW95351   8.845   2.341   9.120
31115SOL    HW195352   8.854   2.400   9.197
31115SOL    HW295353   8.905   2.268   9.142
31116SOL     OW95354   8.411   2.746   9.032
31116SOL    HW195355   8.452   2.665   8.993
31116SOL    HW295356   8.368   2.785   8.953
31117SOL     OW95357   8.423   2.264   8.683
31117SOL    HW195358   8.333   2.274   8.719
31117SOL    HW295359   8.409   2.217   8.600
31118SOL     OW95360   8.488   2.551   7.855
31118SOL    HW195361   8.498   2.572   7.949
31118SOL    HW295362   8.404   2.500   7.855
31119SOL     OW95363   7.558   2.668   8.244
31119SOL    HW195364   7.633   2.680   8.305
31119SOL    HW295365   7.519   2.757   8.242
31120SOL     OW95366   7.555   3.708   9.014
31120SOL    HW195367   7.569   3.689   9.110
31120SOL    HW295368   7.460   3.695   9.005
31121SOL     OW95369   8.330   2.222   7.661
31121SOL    HW195370   8.360   2.282   7.591
31121SOL    HW295371   8.365   2.138   7.629
31122SOL     OW95372   9.168   2.448   9.284
31122SOL    HW195373   9.128   2.524   9.236
31122SOL    HW295374   9.190   2.389   9.210
31123SOL     OW95375   8.809   3.015   8.018
31123SOL    HW195376   8.883   3.004   7.957
31123SOL    HW295377   8.750   3.071   7.965
31124SOL     OW95378   8.001   2.068   8.341
31124SOL    HW195379   8.011   2.074   8.438
31124SOL    HW295380   7.989   2.160   8.315
31125SOL     OW95381   8.450   3.306   7.947
31125SOL    HW195382   8.420   3.370   7.880
31125SOL    HW295383   8.436   3.355   8.029
31126SOL     OW95384   7.794   3.677   8.299
31126SOL    HW195385   7.843   3.594   8.316
31126SOL    HW295386   7.863   3.744   8.310
31127SOL     OW95387   9.277   2.880   8.324
31127SOL    HW195388   9.224   2.869   8.243
31127SOL    HW295389   9.208   2.886   8.392
31128SOL     OW95390   8.676   3.410   8.944
31128SOL    HW195391   8.649   3.344   9.011
31128SOL    HW295392   8.629   3.377   8.866
31129SOL     OW95393   7.744   2.818   7.711
31129SOL    HW195394   7.828   2.842   7.668
31129SOL    HW295395   7.733   2.727   7.679
31130SOL     OW95396   8.920   2.623   8.168
31130SOL    HW195397   8.904   2.571   8.248
31130SOL    HW295398   9.003   2.668   8.189
31131SOL     OW95399   7.907   3.138   9.175
31131SOL    HW195400   7.864   3.141   9.086
31131SOL    HW295401   7.828   3.145   9.232
31132SOL     OW95402   8.540   3.628   7.688
31132SOL    HW195403   8.467   3.582   7.734
31132SOL    HW295404   8.545   3.578   7.604
31133SOL     OW95405   7.618   2.146   8.953
31133SOL    HW195406   7.546   2.193   8.999
31133SOL    HW295407   7.609   2.057   8.989
31134SOL     OW95408   9.073   3.214   7.545
31134SOL    HW195409   9.032   3.298   7.516
31134SOL    HW295410   9.011   3.147   7.509
31135SOL     OW95411   7.902   3.602   7.760
31135SOL    HW195412   7.955   3.643   7.830
31135SOL    HW295413   7.969   3.562   7.702
31136SOL     OW95414   8.829   1.964   7.880
31136SOL    HW195415   8.816   1.929   7.790
31136SOL    HW295416   8.916   2.003   7.872
31137SOL     OW95417   7.694   3.659   8.675
31137SOL    HW195418   7.747   3.588   8.714
31137SOL    HW295419   7.681   3.629   8.584
31138SOL     OW95420   8.402   3.566   8.333
31138SOL    HW195421   8.486   3.518   8.337
31138SOL    HW295422   8.354   3.515   8.264
31139SOL     OW95423   7.827   2.550   7.908
31139SOL    HW195424   7.842   2.455   7.928
31139SOL    HW295425   7.733   2.557   7.931
31140SOL     OW95426   8.991   2.117   9.177
31140SOL    HW195427   8.989   2.121   9.275
31140SOL    HW295428   8.926   2.046   9.161
31141SOL     OW95429   8.074   1.998   7.553
31141SOL    HW195430   8.157   1.952   7.572
31141SOL    HW295431   8.032   1.941   7.486
31142SOL     OW95432   8.226   2.124   9.194
31142SOL    HW195433   8.302   2.062   9.201
31142SOL    HW295434   8.169   2.092   9.266
31143SOL     OW95435   8.333   3.404   8.642
31143SOL    HW195436   8.324   3.378   8.548
31143SOL    HW295437   8.390   3.334   8.678
31144SOL     OW95438   8.780   2.454   8.879
31144SOL    HW195439   8.816   2.424   8.965
31144SOL    HW295440   8.832   2.536   8.862
31145SOL     OW95441   8.251   3.275   8.371
31145SOL    HW195442   8.337   3.261   8.327
31145SOL    HW295443   8.187   3.270   8.296
31146SOL     OW95444   8.379   2.389   8.350
31146SOL    HW195445   8.355   2.385   8.255
31146SOL    HW295446   8.403   2.296   8.366
31147SOL     OW95447   8.002   1.910   7.950
31147SOL    HW195448   7.929   1.921   8.012
31147SOL    HW295449   7.994   1.992   7.896
31148SOL     OW95450   8.891   3.026   7.472
31148SOL    HW195451   8.918   2.955   7.535
31148SOL    HW295452   8.803   3.051   7.504
31149SOL     OW95453   7.730   1.909   7.641
31149SOL    HW195454   7.789   1.983   7.620
31149SOL    HW295455   7.793   1.846   7.680
31150SOL     OW95456   8.379   2.116   7.934
31150SOL    HW195457   8.359   2.160   7.850
31150SOL    HW295458   8.476   2.127   7.938
31151SOL     OW95459   8.534   2.540   8.917
31151SOL    HW195460   8.477   2.461   8.918
31151SOL    HW295461   8.624   2.502   8.912
31152SOL     OW95462   8.674   3.455   8.240
31152SOL    HW195463   8.681   3.508   8.159
31152SOL    HW295464   8.747   3.489   8.294
31153SOL     OW95465   7.922   3.026   8.195
31153SOL    HW195466   7.847   2.989   8.246
31153SOL    HW295467   7.890   3.009   8.103
31154SOL     OW95468   8.716   3.667   8.045
31154SOL    HW195469   8.763   3.730   7.987
31154SOL    HW295470   8.666   3.727   8.102
31155SOL     OW95471   8.504   2.396   7.477
31155SOL    HW195472   8.457   2.481   7.465
31155SOL    HW295473   8.569   2.414   7.546
31156SOL     OW95474   7.488   2.432   8.840
31156SOL    HW195475   7.582   2.414   8.824
31156SOL    HW295476   7.494   2.504   8.905
31157SOL     OW95477   8.023   2.074   8.608
31157SOL    HW195478   8.067   2.000   8.652
31157SOL    HW295479   7.934   2.070   8.646
31158SOL     OW95480   8.315   2.332   8.098
31158SOL    HW195481   8.277   2.376   8.021
31158SOL    HW295482   8.342   2.246   8.061
31159SOL     OW95483   8.465   1.939   8.212
31159SOL    HW195484   8.430   1.919   8.124
31159SOL    HW295485   8.443   1.858   8.261
31160SOL     OW95486   8.866   3.042   8.323
31160SOL    HW195487   8.794   2.981   8.346
31160SOL    HW295488   8.863   3.039   8.225
31161SOL     OW95489   8.929   2.431   8.417
31161SOL    HW195490   8.869   2.356   8.431
31161SOL    HW295491   8.984   2.430   8.497
31162SOL     OW95492   9.282   2.677   7.849
31162SOL    HW195493   9.341   2.621   7.904
31162SOL    HW295494   9.267   2.616   7.773
31163SOL     OW95495   7.938   3.286   7.577
31163SOL    HW195496   7.856   3.269   7.626
31163SOL    HW295497   7.946   3.207   7.521
31164SOL     OW95498   9.127   3.158   8.103
31164SOL    HW195499   9.222   3.179   8.103
31164SOL    HW295500   9.085   3.243   8.126
31165SOL     OW95501   8.834   2.444   7.511
31165SOL    HW195502   8.781   2.434   7.593
31165SOL    HW295503   8.898   2.373   7.524
31166SOL     OW95504   7.964   2.106   7.772
31166SOL    HW195505   8.012   2.071   7.694
31166SOL    HW295506   7.939   2.194   7.739
31167SOL     OW95507   9.183   3.095   9.022
31167SOL    HW195508   9.268   3.055   9.046
31167SOL    HW295509   9.201   3.189   9.040
31168SOL     OW95510   8.516   3.226   8.787
31168SOL    HW195511   8.438   3.190   8.831
31168SOL    HW295512   8.588   3.174   8.828
31169SOL     OW95513   9.062   3.499   9.085
31169SOL    HW195514   9.065   3.525   8.991
31169SOL    HW295515   9.143   3.446   9.093
31170SOL     OW95516   8.576   3.089   8.541
31170SOL    HW195517   8.511   3.106   8.610
31170SOL    HW295518   8.538   3.134   8.464
31171SOL     OW95519   9.048   2.952   8.510
31171SOL    HW195520   9.054   3.017   8.582
31171SOL    HW295521   8.991   2.998   8.445
31172SOL     OW95522   8.359   1.973   8.846
31172SOL    HW195523   8.392   1.943   8.760
31172SOL    HW295524   8.439   2.012   8.886
31173SOL     OW95525   8.440   2.970   9.191
31173SOL    HW195526   8.349   2.999   9.209
31173SOL    HW295527   8.428   2.897   9.127
31174SOL     OW95528   8.192   2.967   7.846
31174SOL    HW195529   8.166   2.927   7.931
31174SOL    HW295530   8.228   2.891   7.796
31175SOL     OW95531   7.870   2.675   8.714
31175SOL    HW195532   7.943   2.676   8.780
31175SOL    HW295533   7.834   2.585   8.724
31176SOL     OW95534   8.727   2.252   8.712
31176SOL    HW195535   8.747   2.326   8.773
31176SOL    HW295536   8.636   2.272   8.684
31177SOL     OW95537   7.522   3.430   8.787
31177SOL    HW195538   7.518   3.520   8.752
31177SOL    HW295539   7.618   3.411   8.785
31178SOL     OW95540   7.832   2.974   7.953
31178SOL    HW195541   7.879   3.022   7.884
31178SOL    HW295542   7.814   2.889   7.909
31179SOL     OW95543   7.975   2.403   8.288
31179SOL    HW195544   8.008   2.463   8.218
31179SOL    HW295545   8.037   2.422   8.361
31180SOL     OW95546   8.676   3.201   7.833
31180SOL    HW195547   8.723   3.275   7.875
31180SOL    HW295548   8.586   3.213   7.868
31181SOL     OW95549   8.746   3.326   8.615
31181SOL    HW195550   8.801   3.318   8.695
31181SOL    HW295551   8.675   3.263   8.632
31182SOL     OW95552   9.034   2.480   7.921
31182SOL    HW195553   8.976   2.523   7.986
31182SOL    HW295554   9.066   2.556   7.870
31183SOL     OW95555   7.783   3.371   8.763
31183SOL    HW195556   7.776   3.336   8.671
31183SOL    HW295557   7.877   3.393   8.766
31184SOL     OW95558   7.879   2.589   9.072
31184SOL    HW195559   7.936   2.634   9.008
31184SOL    HW295560   7.906   2.497   9.061
31185SOL     OW95561   9.071   2.638   9.127
31185SOL    HW195562   8.985   2.682   9.129
31185SOL    HW295563   9.113   2.682   9.050
31186SOL     OW95564   8.443   1.970   9.209
31186SOL    HW195565   8.506   2.041   9.193
31186SOL    HW295566   8.490   1.895   9.170
31187SOL     OW95567   7.934   1.900   9.198
31187SOL    HW195568   7.916   1.827   9.136
31187SOL    HW295569   7.855   1.956   9.190
31188SOL     OW95570   8.043   2.761   8.503
31188SOL    HW195571   8.071   2.854   8.504
31188SOL    HW295572   7.983   2.754   8.579
31189SOL     OW95573   8.813   2.717   8.463
31189SOL    HW195574   8.725   2.690   8.434
31189SOL    HW295575   8.858   2.631   8.470
31190SOL     OW95576   8.665   2.386   7.721
31190SOL    HW195577   8.673   2.309   7.781
31190SOL    HW295578   8.601   2.442   7.769
31191SOL     OW95579   7.756   2.061   8.698
31191SOL    HW195580   7.707   2.088   8.777
31191SOL    HW295581   7.731   1.967   8.691
31192SOL     OW95582   7.477   3.166   8.728
31192SOL    HW195583   7.504   3.107   8.802
31192SOL    HW295584   7.491   3.255   8.764
31193SOL     OW95585   8.148   2.502   8.493
31193SOL    HW195586   8.236   2.486   8.455
31193SOL    HW295587   8.134   2.599   8.481
31194SOL     OW95588   9.207   2.817   9.291
31194SOL    HW195589   9.162   2.755   9.232
31194SOL    HW295590   9.142   2.825   9.363
31195SOL     OW95591   7.740   1.924   8.061
31195SOL    HW195592   7.721   2.016   8.087
31195SOL    HW295593   7.755   1.882   8.148
31196SOL     OW95594   9.035   2.227   7.834
31196SOL    HW195595   9.089   2.178   7.897
31196SOL    HW295596   9.036   2.318   7.870
31197SOL     OW95597   8.517   2.611   8.420
31197SOL    HW195598   8.490   2.627   8.512
31197SOL    HW295599   8.478   2.522   8.406
31198SOL     OW95600   8.420   3.427   9.149
31198SOL    HW195601   8.415   3.477   9.065
31198SOL    HW295602   8.455   3.341   9.119
31199SOL     OW95603   9.302   3.357   9.051
31199SOL    HW195604   9.326   3.386   8.961
31199SOL    HW295605   9.384   3.377   9.100
31200SOL     OW95606   7.802   2.772   9.247
31200SOL    HW195607   7.886   2.784   9.293
31200SOL    HW295608   7.821   2.695   9.189
31201SOL     OW95609   8.965   2.194   7.584
31201SOL    HW195610   8.915   2.109   7.591
31201SOL    HW295611   8.995   2.203   7.677
31202SOL     OW95612   8.741   2.700   7.477
31202SOL    HW195613   8.782   2.611   7.485
31202SOL    HW295614   8.765   2.724   7.385
31203SOL     OW95615   8.512   3.227   8.295
31203SOL    HW195616   8.527   3.150   8.237
31203SOL    HW295617   8.585   3.287   8.275
31204SOL     OW95618   7.743   2.684   8.456
31204SOL    HW195619   7.838   2.690   8.439
31204SOL    HW295620   7.734   2.589   8.476
31205SOL     OW95621   7.763   2.405   8.446
31205SOL    HW195622   7.737   2.311   8.440
31205SOL    HW295623   7.832   2.410   8.376
31206SOL     OW95624   8.603   2.230   9.138
31206SOL    HW195625   8.557   2.286   9.204
31206SOL    HW295626   8.692   2.269   9.139
31207SOL     OW95627   8.614   2.061   8.932
31207SOL    HW195628   8.611   2.125   9.007
31207SOL    HW295629   8.657   2.114   8.863
31208SOL     OW95630   7.438   3.176   7.644
31208SOL    HW195631   7.348   3.189   7.607
31208SOL    HW295632   7.433   3.086   7.682
31209SOL     OW95633   7.547   3.648   8.394
31209SOL    HW195634   7.519   3.575   8.335
31209SOL    HW295635   7.637   3.667   8.360
31210SOL     OW95636   7.933   3.451   8.376
31210SOL    HW195637   8.001   3.520   8.390
31210SOL    HW295638   7.980   3.386   8.321
31211SOL     OW95639   8.420   2.628   8.682
31211SOL    HW195640   8.477   2.599   8.756
31211SOL    HW295641   8.333   2.605   8.716
31212SOL     OW95642   7.458   2.377   8.555
31212SOL    HW195643   7.537   2.363   8.501
31212SOL    HW295644   7.498   2.404   8.639
31213SOL     OW95645   7.654   2.380   9.161
31213SOL    HW195646   7.714   2.330   9.104
31213SOL    HW295647   7.617   2.448   9.102
31214SOL     OW95648   8.843   2.789   9.097
31214SOL    HW195649   8.866   2.884   9.094
31214SOL    HW295650   8.836   2.766   9.003
31215SOL     OW95651   8.248   2.428   7.840
31215SOL    HW195652   8.257   2.361   7.770
31215SOL    HW295653   8.176   2.483   7.804
31216SOL     OW95654   9.084   2.486   8.657
31216SOL    HW195655   9.054   2.422   8.724
31216SOL    HW295656   9.166   2.445   8.624
31217SOL     OW95657   7.700   3.401   9.163
31217SOL    HW195658   7.685   3.468   9.232
31217SOL    HW295659   7.705   3.319   9.216
31218SOL     OW95660   8.131   2.338   8.712
31218SOL    HW195661   8.088   2.258   8.679
31218SOL    HW295662   8.126   2.400   8.636
31219SOL     OW95663   8.375   3.551   8.914
31219SOL    HW195664   8.363   3.517   8.824
31219SOL    HW295665   8.369   3.647   8.902
31220SOL     OW95666   7.891   2.335   7.646
31220SOL    HW195667   7.958   2.406   7.650
31220SOL    HW295668   7.809   2.387   7.636
31221SOL     OW95669   7.552   2.988   8.913
31221SOL    HW195670   7.569   2.934   8.994
31221SOL    HW295671   7.579   2.927   8.841
31222SOL     OW95672   8.764   2.901   8.675
31222SOL    HW195673   8.788   2.847   8.597
31222SOL    HW295674   8.701   2.964   8.637
31223SOL     OW95675   8.750   2.723   7.745
31223SOL    HW195676   8.669   2.683   7.779
31223SOL    HW295677   8.733   2.726   7.649
31224SOL     OW95678   9.204   3.608   8.578
31224SOL    HW195679   9.280   3.632   8.521
31224SOL    HW295680   9.196   3.512   8.560
31225SOL     OW95681   8.693   3.582   8.555
31225SOL    HW195682   8.783   3.599   8.523
31225SOL    HW295683   8.698   3.486   8.574
31226SOL     OW95684   7.553   3.114   8.474
31226SOL    HW195685   7.521   3.130   8.566
31226SOL    HW295686   7.480   3.063   8.435
31227SOL     OW95687   8.141   3.499   9.185
31227SOL    HW195688   8.110   3.588   9.163
31227SOL    HW295689   8.234   3.501   9.154
31228SOL     OW95690   9.177   1.993   7.994
31228SOL    HW195691   9.214   1.981   7.905
31228SOL    HW295692   9.154   1.901   8.019
31229SOL     OW95693   8.823   3.440   7.938
31229SOL    HW195694   8.880   3.459   7.861
31229SOL    HW295695   8.777   3.524   7.952
31230SOL     OW95696   7.601   3.654   9.279
31230SOL    HW195697   7.558   3.583   9.332
31230SOL    HW295698   7.646   3.704   9.350
31231SOL     OW95699   8.701   2.775   8.110
31231SOL    HW195700   8.782   2.724   8.129
31231SOL    HW295701   8.739   2.855   8.067
31232SOL     OW95702   8.245   3.122   8.858
31232SOL    HW195703   8.220   3.172   8.939
31232SOL    HW295704   8.166   3.134   8.804
31233SOL     OW95705   8.111   3.482   7.606
31233SOL    HW195706   8.128   3.491   7.510
31233SOL    HW295707   8.053   3.402   7.604
31234SOL     OW95708   9.070   3.577   8.824
31234SOL    HW195709   9.115   3.594   8.739
31234SOL    HW295710   9.059   3.668   8.859
31235SOL     OW95711   9.293   2.033   8.424
31235SOL    HW195712   9.316   1.944   8.391
31235SOL    HW295713   9.205   2.048   8.382
31236SOL     OW95714   7.686   2.168   8.169
31236SOL    HW195715   7.616   2.232   8.146
31236SOL    HW295716   7.690   2.174   8.266
31237SOL     OW95717   8.621   3.485   7.466
31237SOL    HW195718   8.637   3.391   7.486
31237SOL    HW295719   8.559   3.481   7.391
31238SOL     OW95720   8.278   2.860   8.833
31238SOL    HW195721   8.305   2.861   8.740
31238SOL    HW295722   8.267   2.956   8.851
31239SOL     OW95723   8.350   2.774   7.724
31239SOL    HW195724   8.421   2.816   7.672
31239SOL    HW295725   8.393   2.695   7.760
31240SOL     OW95726   8.980   3.460   7.477
31240SOL    HW195727   8.889   3.491   7.476
31240SOL    HW295728   9.009   3.476   7.385
31241SOL     OW95729   7.782   3.139   8.937
31241SOL    HW195730   7.775   3.212   8.873
31241SOL    HW295731   7.701   3.088   8.922
31242SOL     OW95732   9.057   3.166   8.708
31242SOL    HW195733   9.099   3.137   8.790
31242SOL    HW295734   8.993   3.232   8.742
31243SOL     OW95735   8.507   2.976   8.178
31243SOL    HW195736   8.431   2.926   8.211
31243SOL    HW295737   8.560   2.907   8.136
31244SOL     OW95738   8.474   2.091   8.438
31244SOL    HW195739   8.465   2.047   8.351
31244SOL    HW295740   8.475   2.014   8.498
31245SOL     OW95741   8.069   3.348   7.948
31245SOL    HW195742   8.118   3.304   7.877
31245SOL    HW295743   7.991   3.380   7.902
31246SOL     OW95744   9.154   2.238   8.828
31246SOL    HW195745   9.218   2.311   8.827
31246SOL    HW295746   9.199   2.170   8.773
31247SOL     OW95747   7.685   3.245   7.711
31247SOL    HW195748   7.591   3.218   7.707
31247SOL    HW295749   7.699   3.258   7.807
31248SOL     OW95750   7.569   2.860   9.144
31248SOL    HW195751   7.498   2.847   9.211
31248SOL    HW295752   7.651   2.837   9.194
31249SOL     OW95753   8.114   2.051   8.940
31249SOL    HW195754   8.202   2.019   8.913
31249SOL    HW295755   8.129   2.076   9.032
31250SOL     OW95756   7.552   2.189   7.458
31250SOL    HW195757   7.457   2.205   7.454
31250SOL    HW295758   7.585   2.269   7.413
31251SOL     OW95759   8.899   2.709   8.830
31251SOL    HW195760   8.855   2.773   8.772
31251SOL    HW295761   8.991   2.740   8.831
31252SOL     OW95762   7.496   2.033   7.736
31252SOL    HW195763   7.495   2.123   7.701
31252SOL    HW295764   7.581   2.000   7.702
31253SOL     OW95765   8.649   3.215   7.557
31253SOL    HW195766   8.562   3.172   7.559
31253SOL    HW295767   8.672   3.217   7.652
31254SOL     OW95768   8.072   2.679   8.881
31254SOL    HW195769   8.129   2.758   8.886
31254SOL    HW295770   8.139   2.609   8.890
31255SOL     OW95771   8.956   3.612   8.405
31255SOL    HW195772   8.987   3.664   8.329
31255SOL    HW295773   9.033   3.612   8.462
31256SOL     OW95774   8.176   2.396   9.134
31256SOL    HW195775   8.215   2.456   9.200
31256SOL    HW295776   8.195   2.307   9.168
31257SOL     OW95777   8.913   3.046   9.074
31257SOL    HW195778   8.903   3.053   9.171
31257SOL    HW295779   9.008   3.067   9.062
31258SOL     OW95780   7.828   3.596   9.011
31258SOL    HW195781   7.743   3.640   8.998
31258SOL    HW295782   7.801   3.511   9.050
31259SOL     OW95783   9.162   2.745   8.675
31259SOL    HW195784   9.129   2.653   8.661
31259SOL    HW295785   9.109   2.797   8.612
31260SOL     OW95786   8.655   2.190   7.925
31260SOL    HW195787   8.718   2.116   7.912
31260SOL    HW295788   8.699   2.241   7.995
31261SOL     OW95789   8.045   2.599   8.106
31261SOL    HW195790   8.080   2.689   8.093
31261SOL    HW295791   7.979   2.592   8.035
31262SOL     OW95792   9.215   2.240   9.085
31262SOL    HW195793   9.181   2.247   8.994
31262SOL    HW295794   9.140   2.194   9.128
31263SOL     OW95795   9.182   2.799   8.940
31263SOL    HW195796   9.201   2.893   8.945
31263SOL    HW295797   9.198   2.779   8.846
31264SOL     OW95798   8.306   3.225   7.483
31264SOL    HW195799   8.277   3.237   7.575
31264SOL    HW295800   8.323   3.315   7.451
31265SOL     OW95801   8.089   3.668   8.366
31265SOL    HW195802   8.083   3.763   8.345
31265SOL    HW295803   8.183   3.655   8.382
31266SOL     OW95804   8.323   2.811   8.300
31266SOL    HW195805   8.375   2.737   8.335
31266SOL    HW295806   8.307   2.865   8.379
31267SOL     OW95807   8.550   2.870   7.560
31267SOL    HW195808   8.513   2.918   7.485
31267SOL    HW295809   8.606   2.805   7.514
31268SOL     OW95810   9.309   3.411   8.282
31268SOL    HW195811   9.221   3.425   8.245
31268SOL    HW295812   9.291   3.355   8.359
31269SOL     OW95813   7.686   3.184   9.319
31269SOL    HW195814   7.613   3.124   9.301
31269SOL    HW295815   7.680   3.194   9.416
31270SOL     OW95816   7.539   3.112   8.109
31270SOL    HW195817   7.560   3.066   8.191
31270SOL    HW295818   7.614   3.087   8.054
31271SOL     OW95819   8.125   3.257   9.059
31271SOL    HW195820   8.052   3.204   9.095
31271SOL    HW295821   8.112   3.342   9.105
31272SOL     OW95822   9.266   2.035   8.685
31272SOL    HW195823   9.277   1.941   8.699
31272SOL    HW295824   9.277   2.041   8.587
31273SOL     OW95825   7.857   2.298   7.981
31273SOL    HW195826   7.915   2.234   7.938
31273SOL    HW295827   7.838   2.259   8.068
31274SOL     OW95828   9.168   3.346   8.527
31274SOL    HW195829   9.081   3.332   8.486
31274SOL    HW295830   9.159   3.289   8.605
31275SOL     OW95831   7.771   2.404   8.731
31275SOL    HW195832   7.832   2.360   8.794
31275SOL    HW295833   7.796   2.367   8.645
31276SOL     OW95834   8.268   3.458   8.123
31276SOL    HW195835   8.263   3.488   8.031
31276SOL    HW295836   8.185   3.409   8.131
31277SOL     OW95837   8.869   2.106   8.546
31277SOL    HW195838   8.904   2.029   8.592
31277SOL    HW295839   8.819   2.153   8.617
31278SOL     OW95840   8.465   1.859   8.602
31278SOL    HW195841   8.411   1.782   8.578
31278SOL    HW295842   8.555   1.822   8.597
31279SOL     OW95843   8.240   3.212   7.758
31279SOL    HW195844   8.210   3.120   7.764
31279SOL    HW295845   8.311   3.210   7.824
31280SOL     OW95846   8.045   3.417   8.717
31280SOL    HW195847   8.046   3.505   8.761
31280SOL    HW295848   8.139   3.412   8.691
31281SOL     OW95849   8.767   2.341   8.130
31281SOL    HW195850   8.699   2.411   8.127
31281SOL    HW295851   8.742   2.291   8.210
31282SOL     OW95852   9.046   2.069   8.324
31282SOL    HW195853   8.969   2.086   8.381
31282SOL    HW295854   9.047   2.146   8.264
31283SOL     OW95855   7.485   2.924   7.764
31283SOL    HW195856   7.581   2.917   7.749
31283SOL    HW295857   7.462   2.831   7.778
31284SOL     OW95858   8.320   3.504   7.779
31284SOL    HW195859   8.247   3.482   7.717
31284SOL    HW295860   8.289   3.584   7.826
31285SOL     OW95861   7.682   2.513   9.439
31285SOL    HW195862   7.594   2.489   9.471
31285SOL    HW295863   7.680   2.487   9.346
31286SOL     OW95864   7.681   2.127  10.280
31286SOL    HW195865   7.699   2.115  10.375
31286SOL    HW295866   7.590   2.091  10.273
31287SOL     OW95867   7.448   2.265   9.927
31287SOL    HW195868   7.364   2.282   9.973
31287SOL    HW295869   7.433   2.178   9.890
31288SOL     OW95870   7.999   3.102  10.470
31288SOL    HW195871   7.911   3.125  10.439
31288SOL    HW295872   8.027   3.186  10.513
31289SOL     OW95873   8.998   3.385  10.025
31289SOL    HW195874   8.962   3.357  10.112
31289SOL    HW295875   8.920   3.380   9.967
31290SOL     OW95876   8.572   2.544  10.013
31290SOL    HW195877   8.612   2.629   9.991
31290SOL    HW295878   8.523   2.567  10.094
31291SOL     OW95879   9.230   2.469   9.543
31291SOL    HW195880   9.203   2.462   9.449
31291SOL    HW295881   9.181   2.396   9.584
31292SOL     OW95882   8.213   3.011  10.347
31292SOL    HW195883   8.136   3.046  10.396
31292SOL    HW295884   8.238   3.091  10.296
31293SOL     OW95885   8.325   2.629   0.020
31293SOL    HW195886   8.316   2.692   0.093
31293SOL    HW295887   8.350   2.686  11.045
31294SOL     OW95888   8.135   2.884   9.970
31294SOL    HW195889   8.196   2.864  10.044
31294SOL    HW295890   8.063   2.933  10.015
31295SOL     OW95891   7.752   3.308  10.391
31295SOL    HW195892   7.694   3.257  10.332
31295SOL    HW295893   7.817   3.349  10.330
31296SOL     OW95894   8.921   3.362  10.666
31296SOL    HW195895   8.979   3.441  10.674
31296SOL    HW295896   8.849   3.383  10.729
31297SOL     OW95897   7.893   2.282  10.823
31297SOL    HW195898   7.968   2.222  10.813
31297SOL    HW295899   7.816   2.223  10.821
31298SOL     OW95900   9.068   2.300  10.053
31298SOL    HW195901   9.008   2.340   9.988
31298SOL    HW295902   9.061   2.362  10.126
31299SOL     OW95903   7.665   3.577   9.787
31299SOL    HW195904   7.700   3.651   9.842
31299SOL    HW295905   7.730   3.575   9.715
31300SOL     OW95906   7.690   3.290   9.843
31300SOL    HW195907   7.688   3.386   9.849
31300SOL    HW295908   7.620   3.263   9.904
31301SOL     OW95909   7.713   2.962  10.204
31301SOL    HW195910   7.714   2.881  10.258
31301SOL    HW295911   7.657   3.021  10.257
31302SOL     OW95912   8.083   3.676  10.751
31302SOL    HW195913   8.006   3.632  10.791
31302SOL    HW295914   8.069   3.769  10.771
31303SOL     OW95915   8.025   2.852   9.428
31303SOL    HW195916   8.073   2.903   9.359
31303SOL    HW295917   8.067   2.887   9.508
31304SOL     OW95918   9.034   1.982  10.791
31304SOL    HW195919   9.037   2.070  10.751
31304SOL    HW295920   9.031   2.000  10.886
31305SOL     OW95921   7.560   2.512   9.873
31305SOL    HW195922   7.525   2.421   9.885
31305SOL    HW295923   7.552   2.551   9.962
31306SOL     OW95924   9.292   3.598   9.660
31306SOL    HW195925   9.360   3.577   9.726
31306SOL    HW295926   9.315   3.690   9.638
31307SOL     OW95927   7.513   3.460   9.437
31307SOL    HW195928   7.500   3.365   9.455
31307SOL    HW295929   7.476   3.502   9.517
31308SOL     OW95930   9.127   2.771   9.918
31308SOL    HW195931   9.205   2.735   9.873
31308SOL    HW295932   9.098   2.839   9.854
31309SOL     OW95933   9.091   2.993   9.751
31309SOL    HW195934   9.183   2.986   9.723
31309SOL    HW295935   9.098   3.057   9.825
31310SOL     OW95936   7.565   2.591  10.915
31310SOL    HW195937   7.658   2.611  10.930
31310SOL    HW295938   7.525   2.679  10.913
31311SOL     OW95939   8.035   3.276  10.064
31311SOL    HW195940   8.001   3.184  10.069
31311SOL    HW295941   8.030   3.294   9.968
31312SOL     OW95942   8.747   3.115  10.748
31312SOL    HW195943   8.770   3.043  10.686
31312SOL    HW295944   8.801   3.095  10.825
31313SOL     OW95945   8.306   1.859   9.839
31313SOL    HW195946   8.325   1.952   9.816
31313SOL    HW295947   8.208   1.861   9.843
31314SOL     OW95948   7.633   2.820  10.616
31314SOL    HW195949   7.719   2.786  10.584
31314SOL    HW295950   7.570   2.767  10.565
31315SOL     OW95951   8.993   2.822   9.490
31315SOL    HW195952   8.912   2.782   9.525
31315SOL    HW295953   9.029   2.867   9.568
31316SOL     OW95954   8.655   3.670  10.906
31316SOL    HW195955   8.646   3.729  10.830
31316SOL    HW295956   8.665   3.582  10.865
31317SOL     OW95957   7.785   2.090   0.009
31317SOL    HW195958   7.852   2.159   0.016
31317SOL    HW295959   7.703   2.143   0.016
31318SOL     OW95960   8.919   3.277  10.270
31318SOL    HW195961   8.853   3.297  10.339
31318SOL    HW295962   8.892   3.187  10.242
31319SOL     OW95963   9.102   3.600   9.903
31319SOL    HW195964   9.086   3.561   9.816
31319SOL    HW295965   9.075   3.526   9.961
31320SOL     OW95966   8.032   2.573   9.577
31320SOL    HW195967   8.034   2.663   9.542
31320SOL    HW295968   7.961   2.579   9.644
31321SOL     OW95969   8.731   2.210  10.251
31321SOL    HW195970   8.639   2.176  10.254
31321SOL    HW295971   8.774   2.153  10.317
31322SOL     OW95972   9.021   3.507   9.618
31322SOL    HW195973   9.115   3.532   9.621
31322SOL    HW295974   9.009   3.494   9.523
31323SOL     OW95975   8.265   2.478  10.775
31323SOL    HW195976   8.235   2.455  10.865
31323SOL    HW295977   8.215   2.416  10.718
31324SOL     OW95978   8.407   2.740  10.890
31324SOL    HW195979   8.452   2.668  10.841
31324SOL    HW295980   8.360   2.788  10.819
31325SOL     OW95981   8.425   2.237  10.559
31325SOL    HW195982   8.340   2.265  10.596
31325SOL    HW295983   8.403   2.222  10.467
31326SOL     OW95984   8.486   2.550   9.721
31326SOL    HW195985   8.496   2.567   9.817
31326SOL    HW295986   8.401   2.500   9.719
31327SOL     OW95987   7.555   2.673  10.108
31327SOL    HW195988   7.629   2.676  10.171
31327SOL    HW295989   7.518   2.762  10.117
31328SOL     OW95990   7.564   3.695  10.874
31328SOL    HW195991   7.554   3.645  10.956
31328SOL    HW295992   7.474   3.705  10.843
31329SOL     OW95993   8.319   2.236   9.517
31329SOL    HW195994   8.364   2.282   9.445
31329SOL    HW295995   8.310   2.147   9.480
31330SOL     OW95996   8.810   3.011   9.879
31330SOL    HW195997   8.887   3.002   9.821
31330SOL    HW295998   8.756   3.074   9.828
31331SOL     OW95999   8.003   2.040  10.193
31331SOL    HW196000   8.009   2.064  10.287
31331SOL    HW296001   7.987   2.125  10.150
31332SOL     OW96002   8.440   3.313   9.782
31332SOL    HW196003   8.393   3.378   9.726
31332SOL    HW296004   8.449   3.360   9.866
31333SOL     OW96005   7.794   3.677  10.182
31333SOL    HW196006   7.826   3.586  10.199
31333SOL    HW296007   7.880   3.724  10.186
31334SOL     OW96008   9.245   2.907  10.176
31334SOL    HW196009   9.187   2.901  10.099
31334SOL    HW296010   9.183   2.912  10.250
31335SOL     OW96011   8.689   3.421  10.800
31335SOL    HW196012   8.674   3.346  10.858
31335SOL    HW296013   8.625   3.401  10.730
31336SOL     OW96014   7.755   2.804   9.547
31336SOL    HW196015   7.825   2.832   9.486
31336SOL    HW296016   7.731   2.717   9.512
31337SOL     OW96017   8.928   2.624  10.032
31337SOL    HW196018   8.943   2.591  10.122
31337SOL    HW296019   9.009   2.675  10.013
31338SOL     OW96020   7.916   3.149  11.042
31338SOL    HW196021   7.884   3.153  10.949
31338SOL    HW296022   7.880   3.065  11.071
31339SOL     OW96023   8.537   3.640   9.542
31339SOL    HW196024   8.470   3.586   9.586
31339SOL    HW296025   8.561   3.584   9.466
31340SOL     OW96026   7.628   2.154  10.786
31340SOL    HW196027   7.556   2.212  10.814
31340SOL    HW296028   7.611   2.073  10.837
31341SOL     OW96029   9.068   3.225   9.411
31341SOL    HW196030   9.026   3.310   9.387
31341SOL    HW296031   9.007   3.160   9.372
31342SOL     OW96032   7.898   3.600   9.633
31342SOL    HW196033   7.951   3.649   9.698
31342SOL    HW296034   7.965   3.564   9.573
31343SOL     OW96035   8.831   1.975   9.754
31343SOL    HW196036   8.821   1.933   9.667
31343SOL    HW296037   8.926   1.994   9.757
31344SOL     OW96038   7.681   3.660  10.542
31344SOL    HW196039   7.746   3.616  10.598
31344SOL    HW296040   7.686   3.608  10.461
31345SOL     OW96041   8.404   3.580  10.179
31345SOL    HW196042   8.425   3.518  10.249
31345SOL    HW296043   8.364   3.522  10.111
31346SOL     OW96044   7.837   2.561   9.772
31346SOL    HW196045   7.860   2.468   9.789
31346SOL    HW296046   7.741   2.561   9.791
31347SOL     OW96047   8.084   1.992   9.402
31347SOL    HW196048   8.134   1.918   9.439
31347SOL    HW296049   8.029   1.945   9.336
31348SOL     OW96050   8.224   2.124  11.023
31348SOL    HW196051   8.293   2.089  11.080
31348SOL    HW296052   8.157   2.151  11.087
31349SOL     OW96053   8.420   3.405  10.444
31349SOL    HW196054   8.329   3.382  10.422
31349SOL    HW296055   8.430   3.365  10.532
31350SOL     OW96056   8.788   2.454  10.730
31350SOL    HW196057   8.828   2.435  10.815
31350SOL    HW296058   8.827   2.541  10.709
31351SOL     OW96059   8.257   3.253  10.239
31351SOL    HW196060   8.346   3.251  10.198
31351SOL    HW296061   8.197   3.258  10.163
31352SOL     OW96062   8.398   2.378  10.221
31352SOL    HW196063   8.375   2.373  10.125
31352SOL    HW296064   8.422   2.286  10.238
31353SOL     OW96065   8.010   1.910   9.820
31353SOL    HW196066   7.926   1.918   9.868
31353SOL    HW296067   8.001   1.984   9.756
31354SOL     OW96068   8.890   3.037   9.336
31354SOL    HW196069   8.915   2.961   9.393
31354SOL    HW296070   8.802   3.059   9.367
31355SOL     OW96071   7.728   1.903   9.494
31355SOL    HW196072   7.790   1.974   9.476
31355SOL    HW296073   7.787   1.838   9.539
31356SOL     OW96074   8.378   2.119   9.800
31356SOL    HW196075   8.354   2.161   9.716
31356SOL    HW296076   8.474   2.138   9.802
31357SOL     OW96077   8.538   2.542  10.755
31357SOL    HW196078   8.477   2.469  10.767
31357SOL    HW296079   8.627   2.501  10.757
31358SOL     OW96080   8.695   3.417  10.092
31358SOL    HW196081   8.677   3.489  10.030
31358SOL    HW296082   8.746   3.461  10.161
31359SOL     OW96083   7.921   3.026  10.044
31359SOL    HW196084   7.850   2.998  10.107
31359SOL    HW296085   7.880   3.000   9.959
31360SOL     OW96086   8.711   3.679   9.905
31360SOL    HW196087   8.752   3.753   9.856
31360SOL    HW296088   8.663   3.725   9.975
31361SOL     OW96089   8.511   2.408   9.319
31361SOL    HW196090   8.455   2.487   9.306
31361SOL    HW296091   8.575   2.436   9.386
31362SOL     OW96092   7.513   2.425  10.701
31362SOL    HW196093   7.607   2.422  10.678
31362SOL    HW296094   7.511   2.497  10.767
31363SOL     OW96095   8.017   2.082  10.471
31363SOL    HW196096   8.055   2.009  10.520
31363SOL    HW296097   7.925   2.083  10.502
31364SOL     OW96098   8.337   2.327   9.970
31364SOL    HW196099   8.278   2.375   9.910
31364SOL    HW296100   8.350   2.244   9.921
31365SOL     OW96101   8.491   1.926  10.071
31365SOL    HW196102   8.439   1.919   9.990
31365SOL    HW296103   8.458   1.850  10.123
31366SOL     OW96104   8.871   3.024  10.196
31366SOL    HW196105   8.816   2.948  10.216
31366SOL    HW296106   8.859   3.034  10.100
31367SOL     OW96107   8.938   2.450  10.274
31367SOL    HW196108   8.876   2.377  10.286
31367SOL    HW296109   8.988   2.452  10.357
31368SOL     OW96110   9.291   2.685   9.707
31368SOL    HW196111   9.350   2.630   9.762
31368SOL    HW296112   9.274   2.625   9.632
31369SOL     OW96113   7.941   3.288   9.443
31369SOL    HW196114   7.858   3.272   9.492
31369SOL    HW296115   7.925   3.243   9.359
31370SOL     OW96116   9.129   3.151   9.966
31370SOL    HW196117   9.225   3.156   9.978
31370SOL    HW296118   9.096   3.239   9.992
31371SOL     OW96119   8.856   2.456   9.374
31371SOL    HW196120   8.804   2.428   9.452
31371SOL    HW296121   8.942   2.416   9.392
31372SOL     OW96122   7.966   2.092   9.623
31372SOL    HW196123   8.013   2.060   9.543
31372SOL    HW296124   7.934   2.179   9.591
31373SOL     OW96125   9.207   3.094  10.863
31373SOL    HW196126   9.296   3.068  10.890
31373SOL    HW296127   9.207   3.188  10.889
31374SOL     OW96128   8.505   3.239  10.696
31374SOL    HW196129   8.426   3.185  10.715
31374SOL    HW296130   8.578   3.174  10.702
31375SOL     OW96131   8.556   3.096  10.412
31375SOL    HW196132   8.470   3.103  10.454
31375SOL    HW296133   8.539   3.139  10.326
31376SOL     OW96134   9.066   2.956  10.390
31376SOL    HW196135   9.081   3.022  10.461
31376SOL    HW296136   8.999   3.001  10.338
31377SOL     OW96137   8.350   1.977  10.694
31377SOL    HW196138   8.380   1.962  10.603
31377SOL    HW296139   8.432   2.009  10.737
31378SOL     OW96140   8.176   2.943   9.683
31378SOL    HW196141   8.167   2.918   9.777
31378SOL    HW296142   8.242   2.878   9.651
31379SOL     OW96143   7.874   2.672  10.585
31379SOL    HW196144   7.948   2.668  10.649
31379SOL    HW296145   7.834   2.583  10.595
31380SOL     OW96146   8.711   2.239  10.583
31380SOL    HW196147   8.732   2.322  10.629
31380SOL    HW296148   8.624   2.258  10.544
31381SOL     OW96149   7.527   3.432  10.636
31381SOL    HW196150   7.525   3.523  10.602
31381SOL    HW296151   7.623   3.415  10.643
31382SOL     OW96152   7.814   2.960   9.805
31382SOL    HW196153   7.861   3.023   9.749
31382SOL    HW296154   7.796   2.886   9.746
31383SOL     OW96155   7.981   2.407  10.161
31383SOL    HW196156   8.015   2.470  10.093
31383SOL    HW296157   8.044   2.419  10.234
31384SOL     OW96158   8.675   3.198   9.711
31384SOL    HW196159   8.720   3.277   9.746
31384SOL    HW296160   8.583   3.215   9.738
31385SOL     OW96161   8.733   3.321  10.466
31385SOL    HW196162   8.785   3.319  10.547
31385SOL    HW296163   8.663   3.256  10.481
31386SOL     OW96164   9.027   2.475   9.787
31386SOL    HW196165   8.977   2.531   9.849
31386SOL    HW296166   9.059   2.539   9.722
31387SOL     OW96167   7.789   3.363  10.640
31387SOL    HW196168   7.775   3.337  10.546
31387SOL    HW296169   7.887   3.377  10.640
31388SOL     OW96170   7.891   2.575  10.931
31388SOL    HW196171   7.957   2.619  10.873
31388SOL    HW296172   7.903   2.483  10.905
31389SOL     OW96173   9.064   2.627  10.998
31389SOL    HW196174   8.987   2.674  10.966
31389SOL    HW296175   9.134   2.672  10.949
31390SOL     OW96176   8.010   2.752  10.362
31390SOL    HW196177   8.058   2.837  10.364
31390SOL    HW296178   7.971   2.746  10.451
31391SOL     OW96179   8.795   2.729  10.330
31391SOL    HW196180   8.712   2.699  10.291
31391SOL    HW296181   8.851   2.651  10.323
31392SOL     OW96182   8.665   2.385   9.578
31392SOL    HW196183   8.668   2.310   9.640
31392SOL    HW296184   8.608   2.447   9.625
31393SOL     OW96185   7.734   2.074  10.543
31393SOL    HW196186   7.694   2.106  10.627
31393SOL    HW296187   7.713   1.979  10.547
31394SOL     OW96188   7.464   3.158  10.600
31394SOL    HW196189   7.508   3.106  10.670
31394SOL    HW296190   7.489   3.250  10.622
31395SOL     OW96191   8.161   2.506  10.355
31395SOL    HW196192   8.239   2.497  10.298
31395SOL    HW296193   8.126   2.595  10.334
31396SOL     OW96194   7.757   1.926   9.919
31396SOL    HW196195   7.726   2.015   9.944
31396SOL    HW296196   7.764   1.880  10.005
31397SOL     OW96197   9.037   2.239   9.663
31397SOL    HW196198   9.072   2.174   9.725
31397SOL    HW296199   9.030   2.320   9.719
31398SOL     OW96200   8.478   2.628  10.270
31398SOL    HW196201   8.469   2.643  10.366
31398SOL    HW296202   8.460   2.532  10.263
31399SOL     OW96203   8.436   3.413  10.965
31399SOL    HW196204   8.415   3.479  10.896
31399SOL    HW296205   8.411   3.332  10.918
31400SOL     OW96206   9.309   3.352  10.902
31400SOL    HW196207   9.315   3.387  10.812
31400SOL    HW296208   9.394   3.377  10.941
31401SOL     OW96209   7.817   2.779  11.075
31401SOL    HW196210   7.896   2.799   0.027
31401SOL    HW296211   7.847   2.700  11.025
31402SOL     OW96212   8.951   2.115   9.437
31402SOL    HW196213   8.878   2.059   9.468
31402SOL    HW296214   8.988   2.151   9.520
31403SOL     OW96215   8.733   2.703   9.328
31403SOL    HW196216   8.787   2.622   9.338
31403SOL    HW296217   8.764   2.734   9.240
31404SOL     OW96218   8.514   3.223  10.156
31404SOL    HW196219   8.528   3.151  10.092
31404SOL    HW296220   8.584   3.288  10.134
31405SOL     OW96221   7.736   2.688  10.316
31405SOL    HW196222   7.832   2.703  10.319
31405SOL    HW296223   7.730   2.594  10.337
31406SOL     OW96224   7.769   2.380  10.320
31406SOL    HW196225   7.741   2.290  10.291
31406SOL    HW296226   7.835   2.400  10.250
31407SOL     OW96227   8.605   2.060  10.771
31407SOL    HW196228   8.629   2.113  10.848
31407SOL    HW296229   8.638   2.114  10.697
31408SOL     OW96230   7.452   3.192   9.506
31408SOL    HW196231   7.360   3.202   9.473
31408SOL    HW296232   7.450   3.100   9.540
31409SOL     OW96233   7.523   3.692  10.222
31409SOL    HW196234   7.496   3.605  10.187
31409SOL    HW296235   7.621   3.686  10.212
31410SOL     OW96236   7.929   3.448  10.249
31410SOL    HW196237   8.005   3.500  10.283
31410SOL    HW296238   7.973   3.386  10.188
31411SOL     OW96239   8.425   2.652  10.534
31411SOL    HW196240   8.484   2.616  10.603
31411SOL    HW296241   8.339   2.628  10.569
31412SOL     OW96242   7.475   2.371  10.427
31412SOL    HW196243   7.560   2.375  10.381
31412SOL    HW296244   7.502   2.364  10.519
31413SOL     OW96245   8.251   2.432   9.691
31413SOL    HW196246   8.266   2.364   9.622
31413SOL    HW296247   8.172   2.478   9.658
31414SOL     OW96248   9.096   2.477  10.503
31414SOL    HW196249   9.084   2.411  10.572
31414SOL    HW296250   9.179   2.447  10.461
31415SOL     OW96251   7.684   3.400  11.034
31415SOL    HW196252   7.694   3.442   0.019
31415SOL    HW296253   7.720   3.311  11.050
31416SOL     OW96254   8.149   2.337  10.575
31416SOL    HW196255   8.096   2.263  10.541
31416SOL    HW296256   8.141   2.404  10.504
31417SOL     OW96257   8.351   3.557  10.747
31417SOL    HW196258   8.264   3.537  10.707
31417SOL    HW296259   8.346   3.654  10.755
31418SOL     OW96260   7.882   2.335   9.504
31418SOL    HW196261   7.951   2.402   9.518
31418SOL    HW296262   7.803   2.392   9.494
31419SOL     OW96263   7.571   3.005  10.794
31419SOL    HW196264   7.578   2.952  10.876
31419SOL    HW296265   7.601   2.940  10.727
31420SOL     OW96266   8.752   2.913  10.547
31420SOL    HW196267   8.776   2.853  10.474
31420SOL    HW296268   8.689   2.973  10.503
31421SOL     OW96269   8.755   2.729   9.597
31421SOL    HW196270   8.673   2.697   9.636
31421SOL    HW296271   8.734   2.730   9.502
31422SOL     OW96272   9.210   3.616  10.439
31422SOL    HW196273   9.281   3.635  10.375
31422SOL    HW296274   9.199   3.519  10.428
31423SOL     OW96275   8.703   3.597  10.468
31423SOL    HW196276   8.787   3.604  10.420
31423SOL    HW296277   8.686   3.501  10.465
31424SOL     OW96278   7.547   3.111  10.346
31424SOL    HW196279   7.520   3.131  10.437
31424SOL    HW296280   7.469   3.066  10.311
31425SOL     OW96281   9.130   2.004   9.796
31425SOL    HW196282   9.208   1.990   9.740
31425SOL    HW296283   9.126   1.920   9.846
31426SOL     OW96284   8.815   3.438   9.797
31426SOL    HW196285   8.877   3.456   9.723
31426SOL    HW296286   8.774   3.525   9.812
31427SOL     OW96287   8.705   2.780   9.987
31427SOL    HW196288   8.786   2.727  10.001
31427SOL    HW296289   8.739   2.856   9.936
31428SOL     OW96290   8.240   3.130  10.744
31428SOL    HW196291   8.215   3.170  10.829
31428SOL    HW296292   8.197   3.193  10.683
31429SOL     OW96293   8.108   3.485   9.473
31429SOL    HW196294   8.126   3.489   9.378
31429SOL    HW296295   8.051   3.404   9.475
31430SOL     OW96296   9.078   3.577  10.681
31430SOL    HW196297   9.125   3.599  10.598
31430SOL    HW296298   9.062   3.665  10.719
31431SOL     OW96299   9.288   2.022  10.270
31431SOL    HW196300   9.315   1.934  10.239
31431SOL    HW296301   9.197   2.033  10.233
31432SOL     OW96302   7.701   2.178  10.004
31432SOL    HW196303   7.619   2.229   9.991
31432SOL    HW296304   7.706   2.171  10.101
31433SOL     OW96305   8.630   3.482   9.340
31433SOL    HW196306   8.642   3.386   9.353
31433SOL    HW296307   8.570   3.487   9.264
31434SOL     OW96308   8.258   2.857  10.696
31434SOL    HW196309   8.288   2.862  10.604
31434SOL    HW296310   8.255   2.952  10.721
31435SOL     OW96311   8.359   2.777   9.582
31435SOL    HW196312   8.435   2.821   9.539
31435SOL    HW296313   8.398   2.698   9.621
31436SOL     OW96314   8.982   3.470   9.343
31436SOL    HW196315   8.888   3.491   9.344
31436SOL    HW296316   9.006   3.485   9.249
31437SOL     OW96317   7.805   3.149  10.809
31437SOL    HW196318   7.800   3.216  10.738
31437SOL    HW296319   7.722   3.099  10.798
31438SOL     OW96320   9.071   3.164  10.581
31438SOL    HW196321   9.117   3.140  10.663
31438SOL    HW296322   9.006   3.230  10.614
31439SOL     OW96323   8.480   2.984  10.010
31439SOL    HW196324   8.412   2.933  10.058
31439SOL    HW296325   8.545   2.916   9.989
31440SOL     OW96326   8.485   2.092  10.289
31440SOL    HW196327   8.475   2.050  10.202
31440SOL    HW296328   8.483   2.014  10.348
31441SOL     OW96329   8.067   3.362   9.802
31441SOL    HW196330   8.118   3.315   9.734
31441SOL    HW296331   7.990   3.392   9.753
31442SOL     OW96332   9.154   2.254  10.706
31442SOL    HW196333   9.220   2.326  10.706
31442SOL    HW296334   9.191   2.195  10.637
31443SOL     OW96335   7.698   3.247   9.583
31443SOL    HW196336   7.601   3.237   9.573
31443SOL    HW296337   7.705   3.258   9.680
31444SOL     OW96338   7.569   2.871  11.028
31444SOL    HW196339   7.510   2.825  11.088
31444SOL    HW296340   7.658   2.841  11.056
31445SOL     OW96341   8.108   2.064  10.783
31445SOL    HW196342   8.193   2.049  10.738
31445SOL    HW296343   8.139   2.085  10.873
31446SOL     OW96344   7.542   2.240   9.360
31446SOL    HW196345   7.453   2.217   9.331
31446SOL    HW296346   7.570   2.302   9.290
31447SOL     OW96347   8.886   2.714  10.723
31447SOL    HW196348   8.830   2.780  10.679
31447SOL    HW296349   8.974   2.736  10.687
31448SOL     OW96350   7.496   2.026   9.603
31448SOL    HW196351   7.496   2.115   9.566
31448SOL    HW296352   7.579   1.990   9.565
31449SOL     OW96353   8.653   3.213   9.427
31449SOL    HW196354   8.572   3.161   9.436
31449SOL    HW296355   8.682   3.220   9.520
31450SOL     OW96356   8.080   2.669  10.760
31450SOL    HW196357   8.134   2.749  10.745
31450SOL    HW296358   8.149   2.601  10.768
31451SOL     OW96359   8.972   3.620  10.292
31451SOL    HW196360   8.998   3.661  10.209
31451SOL    HW296361   9.054   3.619  10.343
31452SOL     OW96362   8.159   2.444  11.032
31452SOL    HW196363   8.206   2.517  11.077
31452SOL    HW296364   8.206   2.366  11.063
31453SOL     OW96365   7.820   3.590  10.865
31453SOL    HW196366   7.743   3.649  10.855
31453SOL    HW296367   7.781   3.514  10.909
31454SOL     OW96368   9.132   2.750  10.576
31454SOL    HW196369   9.122   2.659  10.543
31454SOL    HW296370   9.103   2.804  10.500
31455SOL     OW96371   8.642   2.186   9.778
31455SOL    HW196372   8.708   2.115   9.766
31455SOL    HW296373   8.680   2.237   9.853
31456SOL     OW96374   8.051   2.598   9.967
31456SOL    HW196375   8.087   2.687   9.952
31456SOL    HW296376   7.976   2.597   9.905
31457SOL     OW96377   9.221   2.165  10.952
31457SOL    HW196378   9.192   2.188  10.861
31457SOL    HW296379   9.142   2.183  11.003
31458SOL     OW96380   9.200   2.809  10.830
31458SOL    HW196381   9.192   2.905  10.832
31458SOL    HW296382   9.198   2.789  10.735
31459SOL     OW96383   8.294   3.223   9.346
31459SOL    HW196384   8.271   3.243   9.438
31459SOL    HW296385   8.324   3.307   9.309
31460SOL     OW96386   8.089   3.676  10.222
31460SOL    HW196387   8.093   3.772  10.216
31460SOL    HW296388   8.182   3.648  10.216
31461SOL     OW96389   8.313   2.823  10.165
31461SOL    HW196390   8.365   2.750  10.204
31461SOL    HW296391   8.293   2.880  10.241
31462SOL     OW96392   8.554   2.875   9.417
31462SOL    HW196393   8.511   2.919   9.341
31462SOL    HW296394   8.605   2.806   9.370
31463SOL     OW96395   9.299   3.415  10.167
31463SOL    HW196396   9.224   3.412  10.107
31463SOL    HW296397   9.266   3.367  10.245
31464SOL     OW96398   7.532   3.119   9.987
31464SOL    HW196399   7.529   3.055  10.060
31464SOL    HW296400   7.607   3.086   9.936
31465SOL     OW96401   8.132   3.283  10.942
31465SOL    HW196402   8.055   3.235  10.974
31465SOL    HW296403   8.095   3.342  10.874
31466SOL     OW96404   9.234   2.069  10.532
31466SOL    HW196405   9.285   1.990  10.550
31466SOL    HW296406   9.250   2.081  10.437
31467SOL     OW96407   7.886   2.293   9.832
31467SOL    HW196408   7.924   2.217   9.786
31467SOL    HW296409   7.838   2.253   9.907
31468SOL     OW96410   9.167   3.351  10.407
31468SOL    HW196411   9.082   3.323  10.369
31468SOL    HW296412   9.173   3.290  10.483
31469SOL     OW96413   7.784   2.412  10.595
31469SOL    HW196414   7.843   2.358  10.651
31469SOL    HW296415   7.794   2.375  10.506
31470SOL     OW96416   8.275   3.451   9.980
31470SOL    HW196417   8.261   3.478   9.888
31470SOL    HW296418   8.191   3.406  10.000
31471SOL     OW96419   8.844   2.052  10.449
31471SOL    HW196420   8.926   2.034  10.495
31471SOL    HW296421   8.802   2.121  10.505
31472SOL     OW96422   8.469   1.854  10.454
31472SOL    HW196423   8.405   1.787  10.426
31472SOL    HW296424   8.515   1.811  10.527
31473SOL     OW96425   8.233   3.207   9.623
31473SOL    HW196426   8.202   3.115   9.633
31473SOL    HW296427   8.314   3.206   9.677
31474SOL     OW96428   8.761   1.878   9.494
31474SOL    HW196429   8.766   1.819   9.418
31474SOL    HW296430   8.669   1.858   9.526
31475SOL     OW96431   8.728   2.327   9.990
31475SOL    HW196432   8.672   2.408   9.988
31475SOL    HW296433   8.720   2.299  10.082
31476SOL     OW96434   9.041   2.061  10.191
31476SOL    HW196435   8.957   2.078  10.234
31476SOL    HW296436   9.051   2.137  10.131
31477SOL     OW96437   7.491   2.941   9.624
31477SOL    HW196438   7.586   2.935   9.604
31477SOL    HW296439   7.470   2.847   9.642
31478SOL     OW96440   8.316   3.513   9.637
31478SOL    HW196441   8.239   3.504   9.578
31478SOL    HW296442   8.298   3.594   9.688
31479SOL     OW96443   7.693   4.360   0.158
31479SOL    HW196444   7.600   4.341   0.168
31479SOL    HW296445   7.712   4.344   0.065
31480SOL     OW96446   7.456   4.123   0.612
31480SOL    HW196447   7.375   4.148   0.659
31480SOL    HW296448   7.428   4.043   0.567
31481SOL     OW96449   8.027   5.028   1.202
31481SOL    HW196450   7.936   5.027   1.169
31481SOL    HW296451   8.038   5.122   1.227
31482SOL     OW96452   8.988   5.246   0.712
31482SOL    HW196453   8.951   5.214   0.797
31482SOL    HW296454   8.911   5.246   0.653
31483SOL     OW96455   8.576   4.416   0.708
31483SOL    HW196456   8.615   4.499   0.675
31483SOL    HW296457   8.545   4.443   0.796
31484SOL     OW96458   9.234   4.325   0.230
31484SOL    HW196459   9.182   4.359   0.156
31484SOL    HW296460   9.177   4.256   0.266
31485SOL     OW96461   8.175   4.892   1.011
31485SOL    HW196462   8.126   4.937   1.081
31485SOL    HW296463   8.219   4.969   0.970
31486SOL     OW96464   8.320   4.482   1.793
31486SOL    HW196465   8.306   4.547   1.863
31486SOL    HW296466   8.353   4.538   1.719
31487SOL     OW96467   8.137   4.726   0.636
31487SOL    HW196468   8.205   4.716   0.705
31487SOL    HW296469   8.067   4.776   0.683
31488SOL     OW96470   8.149   4.879   1.795
31488SOL    HW196471   8.194   4.963   1.822
31488SOL    HW296472   8.063   4.912   1.763
31489SOL     OW96473   7.770   5.150   1.073
31489SOL    HW196474   7.702   5.111   1.016
31489SOL    HW296475   7.823   5.203   1.010
31490SOL     OW96476   8.924   5.234   1.368
31490SOL    HW196477   8.979   5.313   1.385
31490SOL    HW296478   8.859   5.239   1.441
31491SOL     OW96479   7.885   4.132   1.516
31491SOL    HW196480   7.969   4.085   1.517
31491SOL    HW296481   7.819   4.063   1.531
31492SOL     OW96482   9.069   4.179   0.741
31492SOL    HW196483   8.989   4.202   0.691
31492SOL    HW296484   9.059   4.236   0.817
31493SOL     OW96485   7.683   5.445   0.504
31493SOL    HW196486   7.725   5.526   0.539
31493SOL    HW296487   7.720   5.442   0.414
31494SOL     OW96488   8.639   4.999   1.687
31494SOL    HW196489   8.605   5.082   1.725
31494SOL    HW296490   8.559   4.943   1.691
31495SOL     OW96491   7.684   5.151   0.530
31495SOL    HW196492   7.693   5.247   0.542
31495SOL    HW296493   7.619   5.129   0.599
31496SOL     OW96494   7.709   4.813   0.900
31496SOL    HW196495   7.710   4.732   0.952
31496SOL    HW296496   7.659   4.873   0.959
31497SOL     OW96497   8.019   5.537   1.390
31497SOL    HW196498   7.963   5.504   1.463
31497SOL    HW296499   8.064   5.614   1.432
31498SOL     OW96500   8.018   4.722   0.154
31498SOL    HW196501   8.068   4.776   0.091
31498SOL    HW296502   8.063   4.745   0.238
31499SOL     OW96503   9.056   3.823   1.492
31499SOL    HW196504   9.076   3.886   1.422
31499SOL    HW296505   9.067   3.876   1.572
31500SOL     OW96506   7.583   4.381   0.573
31500SOL    HW196507   7.541   4.293   0.584
31500SOL    HW296508   7.559   4.428   0.655
31501SOL     OW96509   9.295   5.461   0.362
31501SOL    HW196510   9.356   5.441   0.435
31501SOL    HW296511   9.322   5.552   0.340
31502SOL     OW96512   7.524   5.335   0.133
31502SOL    HW196513   7.502   5.246   0.164
31502SOL    HW296514   7.494   5.390   0.208
31503SOL     OW96515   9.133   4.627   0.605
31503SOL    HW196516   9.220   4.603   0.570
31503SOL    HW296517   9.110   4.701   0.547
31504SOL     OW96518   9.082   4.848   0.444
31504SOL    HW196519   9.152   4.877   0.384
31504SOL    HW296520   9.089   4.915   0.516
31505SOL     OW96521   7.576   4.463   1.591
31505SOL    HW196522   7.672   4.480   1.594
31505SOL    HW296523   7.545   4.546   1.633
31506SOL     OW96524   8.028   5.122   0.737
31506SOL    HW196525   8.005   5.027   0.741
31506SOL    HW296526   8.020   5.141   0.642
31507SOL     OW96527   8.732   4.946   1.414
31507SOL    HW196528   8.780   4.870   1.377
31507SOL    HW296529   8.758   4.942   1.509
31508SOL     OW96530   8.284   3.730   0.470
31508SOL    HW196531   8.316   3.822   0.477
31508SOL    HW296532   8.188   3.742   0.483
31509SOL     OW96533   7.601   4.691   1.259
31509SOL    HW196534   7.697   4.696   1.248
31509SOL    HW296535   7.577   4.616   1.204
31510SOL     OW96536   8.990   4.702   0.213
31510SOL    HW196537   8.909   4.658   0.243
31510SOL    HW296538   9.025   4.740   0.295
31511SOL     OW96539   8.641   5.533   1.621
31511SOL    HW196540   8.641   5.592   1.545
31511SOL    HW296541   8.651   5.446   1.578
31512SOL     OW96542   7.776   3.989   1.793
31512SOL    HW196543   7.851   4.024   1.843
31512SOL    HW296544   7.701   4.025   1.842
31513SOL     OW96545   8.915   5.143   0.956
31513SOL    HW196546   8.855   5.159   1.031
31513SOL    HW296547   8.888   5.054   0.928
31514SOL     OW96548   9.109   5.466   0.610
31514SOL    HW196549   9.113   5.430   0.520
31514SOL    HW296550   9.071   5.390   0.657
31515SOL     OW96551   8.029   4.432   0.270
31515SOL    HW196552   8.053   4.519   0.235
31515SOL    HW296553   7.971   4.452   0.345
31516SOL     OW96554   8.713   4.069   0.922
31516SOL    HW196555   8.626   4.030   0.942
31516SOL    HW296556   8.772   4.022   0.985
31517SOL     OW96557   9.016   5.377   0.325
31517SOL    HW196558   9.110   5.403   0.318
31517SOL    HW296559   8.994   5.363   0.232
31518SOL     OW96560   8.250   4.341   1.470
31518SOL    HW196561   8.229   4.302   1.557
31518SOL    HW296562   8.206   4.281   1.407
31519SOL     OW96563   8.836   4.199   1.666
31519SOL    HW196564   8.842   4.261   1.741
31519SOL    HW296565   8.902   4.131   1.689
31520SOL     OW96566   8.411   4.609   1.577
31520SOL    HW196567   8.454   4.530   1.537
31520SOL    HW296568   8.369   4.650   1.498
31521SOL     OW96569   8.412   4.106   1.238
31521SOL    HW196570   8.328   4.154   1.236
31521SOL    HW296571   8.422   4.073   1.147
31522SOL     OW96572   8.483   4.406   0.411
31522SOL    HW196573   8.497   4.422   0.506
31522SOL    HW296574   8.397   4.358   0.411
31523SOL     OW96575   7.539   4.534   0.793
31523SOL    HW196576   7.618   4.539   0.850
31523SOL    HW296577   7.494   4.617   0.815
31524SOL     OW96578   7.551   5.542   1.566
31524SOL    HW196579   7.561   5.530   1.663
31524SOL    HW296580   7.456   5.548   1.556
31525SOL     OW96581   8.338   4.102   0.210
31525SOL    HW196582   8.388   4.149   0.140
31525SOL    HW296583   8.348   4.009   0.181
31526SOL     OW96584   9.169   4.310   1.844
31526SOL    HW196585   9.134   4.388   1.796
31526SOL    HW296586   9.198   4.256   1.769
31527SOL     OW96587   8.804   4.885   0.569
31527SOL    HW196588   8.886   4.871   0.520
31527SOL    HW296589   8.757   4.947   0.510
31528SOL     OW96590   7.964   3.928   0.901
31528SOL    HW196591   8.003   3.939   0.990
31528SOL    HW296592   8.000   4.003   0.851
31529SOL     OW96593   8.432   5.148   0.479
31529SOL    HW196594   8.399   5.225   0.427
31529SOL    HW296595   8.444   5.188   0.566
31530SOL     OW96596   7.788   5.544   0.864
31530SOL    HW196597   7.847   5.467   0.873
31530SOL    HW296598   7.849   5.618   0.879
31531SOL     OW96599   9.262   4.771   0.890
31531SOL    HW196600   9.207   4.772   0.811
31531SOL    HW296601   9.197   4.763   0.962
31532SOL     OW96602   8.665   5.290   1.490
31532SOL    HW196603   8.616   5.262   1.570
31532SOL    HW296604   8.624   5.234   1.423
31533SOL     OW96605   7.761   4.687   0.272
31533SOL    HW196606   7.847   4.698   0.229
31533SOL    HW296607   7.733   4.599   0.243
31534SOL     OW96608   8.922   4.480   0.710
31534SOL    HW196609   8.925   4.453   0.803
31534SOL    HW296610   9.005   4.530   0.698
31535SOL     OW96611   7.907   4.993   1.722
31535SOL    HW196612   7.867   4.996   1.632
31535SOL    HW296613   7.828   5.010   1.776
31536SOL     OW96614   8.530   5.489   0.204
31536SOL    HW196615   8.490   5.432   0.272
31536SOL    HW296616   8.569   5.424   0.142
31537SOL     OW96617   7.619   4.003   1.512
31537SOL    HW196618   7.532   3.992   1.472
31537SOL    HW296619   7.629   3.918   1.558
31538SOL     OW96620   9.066   5.067   0.097
31538SOL    HW196621   9.026   5.152   0.072
31538SOL    HW296622   9.009   5.003   0.049
31539SOL     OW96623   7.902   5.467   0.308
31539SOL    HW196624   7.944   5.511   0.385
31539SOL    HW296625   7.975   5.465   0.245
31540SOL     OW96626   8.847   3.837   0.442
31540SOL    HW196627   8.855   3.785   0.360
31540SOL    HW296628   8.940   3.858   0.461
31541SOL     OW96629   7.691   5.520   1.231
31541SOL    HW196630   7.759   5.468   1.278
31541SOL    HW296631   7.695   5.486   1.141
31542SOL     OW96632   8.405   5.422   0.871
31542SOL    HW196633   8.487   5.373   0.886
31542SOL    HW296634   8.360   5.367   0.804
31543SOL     OW96635   7.851   4.404   0.484
31543SOL    HW196636   7.860   4.308   0.493
31543SOL    HW296637   7.759   4.415   0.511
31544SOL     OW96638   8.986   3.984   1.724
31544SOL    HW196639   8.987   3.988   1.823
31544SOL    HW296640   8.934   3.904   1.708
31545SOL     OW96641   8.057   3.828   0.101
31545SOL    HW196642   8.147   3.798   0.123
31545SOL    HW296643   8.040   3.790   0.013
31546SOL     OW96644   8.235   3.964   1.749
31546SOL    HW196645   8.251   3.969   1.845
31546SOL    HW296646   8.139   3.970   1.748
31547SOL     OW96647   8.345   5.268   1.183
31547SOL    HW196648   8.323   5.239   1.093
31547SOL    HW296649   8.397   5.194   1.218
31548SOL     OW96650   8.775   4.318   1.432
31548SOL    HW196651   8.816   4.284   1.514
31548SOL    HW296652   8.829   4.397   1.412
31549SOL     OW96653   8.256   5.135   0.930
31549SOL    HW196654   8.347   5.127   0.895
31549SOL    HW296655   8.204   5.145   0.850
31550SOL     OW96656   8.395   4.230   0.909
31550SOL    HW196657   8.374   4.220   0.813
31550SOL    HW296658   8.431   4.143   0.929
31551SOL     OW96659   8.020   3.781   0.492
31551SOL    HW196660   7.944   3.791   0.552
31551SOL    HW296661   8.006   3.857   0.431
31552SOL     OW96662   8.880   4.887   0.009
31552SOL    HW196663   8.912   4.825   0.077
31552SOL    HW296664   8.803   4.929   0.051
31553SOL     OW96665   7.725   3.791   0.219
31553SOL    HW196666   7.755   3.837   0.138
31553SOL    HW296667   7.798   3.728   0.233
31554SOL     OW96668   8.388   3.982   0.468
31554SOL    HW196669   8.374   4.031   0.386
31554SOL    HW296670   8.484   3.992   0.479
31555SOL     OW96671   8.528   4.403   1.467
31555SOL    HW196672   8.480   4.320   1.471
31555SOL    HW296673   8.622   4.375   1.461
31556SOL     OW96674   8.696   5.295   0.788
31556SOL    HW196675   8.698   5.369   0.724
31556SOL    HW296676   8.755   5.326   0.857
31557SOL     OW96677   7.925   4.858   0.734
31557SOL    HW196678   7.852   4.843   0.797
31557SOL    HW296679   7.880   4.845   0.648
31558SOL     OW96680   8.700   5.531   0.625
31558SOL    HW196681   8.751   5.598   0.576
31558SOL    HW296682   8.650   5.585   0.688
31559SOL     OW96683   8.483   4.247   0.037
31559SOL    HW196684   8.443   4.336   0.032
31559SOL    HW296685   8.575   4.266   0.061
31560SOL     OW96686   7.526   4.277   1.407
31560SOL    HW196687   7.618   4.268   1.375
31560SOL    HW296688   7.526   4.366   1.447
31561SOL     OW96689   8.019   3.940   1.164
31561SOL    HW196690   8.065   3.868   1.208
31561SOL    HW296691   7.929   3.931   1.200
31562SOL     OW96692   8.337   4.171   0.656
31562SOL    HW196693   8.289   4.229   0.596
31562SOL    HW296694   8.352   4.094   0.599
31563SOL     OW96695   8.423   3.813   0.779
31563SOL    HW196696   8.413   3.797   0.684
31563SOL    HW296697   8.428   3.723   0.815
31564SOL     OW96698   8.859   4.896   0.881
31564SOL    HW196699   8.794   4.827   0.900
31564SOL    HW296700   8.863   4.894   0.784
31565SOL     OW96701   8.932   4.304   0.972
31565SOL    HW196702   8.879   4.224   0.987
31565SOL    HW296703   8.992   4.308   1.048
31566SOL     OW96704   9.311   4.560   0.388
31566SOL    HW196705   9.364   4.500   0.443
31566SOL    HW296706   9.279   4.499   0.320
31567SOL     OW96707   7.942   5.171   0.150
31567SOL    HW196708   7.867   5.139   0.203
31567SOL    HW296709   7.935   5.117   0.069
31568SOL     OW96710   9.119   5.013   0.655
31568SOL    HW196711   9.215   5.022   0.669
31568SOL    HW296712   9.084   5.101   0.680
31569SOL     OW96713   8.818   4.316   0.082
31569SOL    HW196714   8.783   4.282   0.167
31569SOL    HW296715   8.882   4.248   0.058
31570SOL     OW96716   7.972   3.964   0.314
31570SOL    HW196717   7.993   3.909   0.236
31570SOL    HW296718   7.942   4.046   0.271
31571SOL     OW96719   9.184   4.954   1.575
31571SOL    HW196720   9.273   4.917   1.581
31571SOL    HW296721   9.202   5.048   1.587
31572SOL     OW96722   8.517   5.083   1.325
31572SOL    HW196723   8.443   5.056   1.382
31572SOL    HW296724   8.591   5.033   1.368
31573SOL     OW96725   9.069   5.343   1.641
31573SOL    HW196726   9.075   5.385   1.554
31573SOL    HW296727   9.146   5.285   1.641
31574SOL     OW96728   8.567   4.935   1.095
31574SOL    HW196729   8.521   4.982   1.165
31574SOL    HW296730   8.539   4.980   1.014
31575SOL     OW96731   9.045   4.819   1.078
31575SOL    HW196732   9.056   4.884   1.150
31575SOL    HW296733   8.986   4.868   1.019
31576SOL     OW96734   8.385   3.823   1.408
31576SOL    HW196735   8.397   3.801   1.314
31576SOL    HW296736   8.462   3.882   1.423
31577SOL     OW96737   8.434   4.822   1.747
31577SOL    HW196738   8.342   4.849   1.760
31577SOL    HW296739   8.428   4.757   1.675
31578SOL     OW96740   8.179   4.788   0.369
31578SOL    HW196741   8.167   4.764   0.463
31578SOL    HW296742   8.250   4.727   0.339
31579SOL     OW96743   7.857   4.535   1.272
31579SOL    HW196744   7.938   4.536   1.327
31579SOL    HW296745   7.826   4.444   1.285
31580SOL     OW96746   8.725   4.098   1.280
31580SOL    HW196747   8.748   4.181   1.326
31580SOL    HW296748   8.641   4.121   1.238
31581SOL     OW96749   7.531   5.301   1.349
31581SOL    HW196750   7.529   5.396   1.329
31581SOL    HW296751   7.628   5.283   1.345
31582SOL     OW96752   7.797   4.821   0.501
31582SOL    HW196753   7.802   4.902   0.448
31582SOL    HW296754   7.787   4.754   0.430
31583SOL     OW96755   7.991   4.260   0.863
31583SOL    HW196756   8.013   4.326   0.793
31583SOL    HW296757   8.064   4.275   0.925
31584SOL     OW96758   8.671   5.066   0.394
31584SOL    HW196759   8.718   5.147   0.425
31584SOL    HW296760   8.579   5.085   0.421
31585SOL     OW96761   8.756   5.194   1.166
31585SOL    HW196762   8.818   5.201   1.243
31585SOL    HW296763   8.688   5.134   1.201
31586SOL     OW96764   9.022   4.345   0.473
31586SOL    HW196765   8.976   4.384   0.549
31586SOL    HW296766   9.050   4.424   0.426
31587SOL     OW96767   7.784   5.239   1.320
31587SOL    HW196768   7.779   5.202   1.229
31587SOL    HW296769   7.878   5.267   1.323
31588SOL     OW96770   7.878   4.456   1.628
31588SOL    HW196771   7.934   4.508   1.569
31588SOL    HW296772   7.922   4.370   1.626
31589SOL     OW96773   9.080   4.502   1.683
31589SOL    HW196774   8.990   4.538   1.678
31589SOL    HW296775   9.123   4.550   1.608
31590SOL     OW96776   7.937   3.773   1.735
31590SOL    HW196777   7.901   3.703   1.677
31590SOL    HW296778   7.861   3.832   1.746
31591SOL     OW96779   8.044   4.631   1.055
31591SOL    HW196780   8.080   4.719   1.034
31591SOL    HW296781   7.996   4.649   1.137
31592SOL     OW96782   8.806   4.579   1.011
31592SOL    HW196783   8.717   4.545   0.993
31592SOL    HW296784   8.857   4.497   1.016
31593SOL     OW96785   8.674   4.228   0.290
31593SOL    HW196786   8.676   4.155   0.356
31593SOL    HW296787   8.613   4.290   0.331
31594SOL     OW96788   7.746   3.919   1.233
31594SOL    HW196789   7.719   3.946   1.322
31594SOL    HW296790   7.728   3.822   1.236
31595SOL     OW96791   7.460   5.050   1.281
31595SOL    HW196792   7.493   5.000   1.358
31595SOL    HW296793   7.482   5.142   1.305
31596SOL     OW96794   8.161   4.366   1.055
31596SOL    HW196795   8.247   4.357   1.012
31596SOL    HW296796   8.137   4.459   1.038
31597SOL     OW96797   9.217   4.672   1.848
31597SOL    HW196798   9.170   4.618   1.781
31597SOL    HW296799   9.147   4.685   1.914
31598SOL     OW96800   7.772   3.799   0.619
31598SOL    HW196801   7.727   3.875   0.660
31598SOL    HW296802   7.778   3.739   0.696
31599SOL     OW96803   9.055   4.108   0.339
31599SOL    HW196804   9.084   4.036   0.398
31599SOL    HW296805   9.038   4.182   0.400
31600SOL     OW96806   8.503   4.477   0.974
31600SOL    HW196807   8.482   4.488   1.069
31600SOL    HW296808   8.474   4.386   0.956
31601SOL     OW96809   9.304   5.214   1.598
31601SOL    HW196810   9.329   5.246   1.510
31601SOL    HW296811   9.378   5.247   1.653
31602SOL     OW96812   7.792   4.638   1.814
31602SOL    HW196813   7.867   4.678   1.862
31602SOL    HW296814   7.836   4.570   1.761
31603SOL     OW96815   8.948   3.993   0.108
31603SOL    HW196816   8.885   3.934   0.151
31603SOL    HW296817   8.997   4.031   0.184
31604SOL     OW96818   8.726   4.563   0.026
31604SOL    HW196819   8.766   4.476   0.045
31604SOL    HW296820   8.766   4.586  11.043
31605SOL     OW96821   8.509   5.088   0.852
31605SOL    HW196822   8.519   5.011   0.794
31605SOL    HW296823   8.583   5.147   0.826
31606SOL     OW96824   7.741   4.552   0.983
31606SOL    HW196825   7.822   4.583   0.941
31606SOL    HW296826   7.777   4.494   1.051
31607SOL     OW96827   7.763   4.217   0.995
31607SOL    HW196828   7.721   4.265   0.923
31607SOL    HW296829   7.857   4.230   0.967
31608SOL     OW96830   8.601   4.064   1.723
31608SOL    HW196831   8.558   4.137   1.773
31608SOL    HW296832   8.691   4.102   1.716
31609SOL     OW96833   8.617   3.932   1.483
31609SOL    HW196834   8.628   4.006   1.545
31609SOL    HW296835   8.661   3.969   1.404
31610SOL     OW96836   7.443   5.066   0.224
31610SOL    HW196837   7.359   5.075   0.173
31610SOL    HW296838   7.454   4.969   0.225
31611SOL     OW96839   7.538   5.486   0.937
31611SOL    HW196840   7.516   5.417   0.871
31611SOL    HW296841   7.631   5.507   0.914
31612SOL     OW96842   7.927   5.297   0.912
31612SOL    HW196843   8.002   5.359   0.917
31612SOL    HW296844   7.958   5.233   0.845
31613SOL     OW96845   8.419   4.487   1.229
31613SOL    HW196846   8.476   4.465   1.305
31613SOL    HW296847   8.332   4.484   1.270
31614SOL     OW96848   7.506   4.256   1.115
31614SOL    HW196849   7.593   4.250   1.074
31614SOL    HW296850   7.525   4.254   1.209
31615SOL     OW96851   8.832   4.621   1.646
31615SOL    HW196852   8.855   4.716   1.647
31615SOL    HW296853   8.819   4.605   1.551
31616SOL     OW96854   8.242   4.281   0.387
31616SOL    HW196855   8.274   4.217   0.321
31616SOL    HW296856   8.173   4.329   0.337
31617SOL     OW96857   9.085   4.343   1.193
31617SOL    HW196858   9.062   4.284   1.266
31617SOL    HW296859   9.172   4.308   1.164
31618SOL     OW96860   7.692   5.262   1.717
31618SOL    HW196861   7.671   5.330   1.783
31618SOL    HW296862   7.699   5.182   1.772
31619SOL     OW96863   8.139   4.200   1.266
31619SOL    HW196864   8.096   4.122   1.229
31619SOL    HW296865   8.137   4.265   1.192
31620SOL     OW96866   8.322   5.414   1.427
31620SOL    HW196867   8.363   5.372   1.350
31620SOL    HW296868   8.391   5.413   1.495
31621SOL     OW96869   7.905   4.195   0.201
31621SOL    HW196870   7.963   4.273   0.208
31621SOL    HW296871   7.818   4.239   0.205
31622SOL     OW96872   7.552   4.855   1.471
31622SOL    HW196873   7.577   4.800   1.548
31622SOL    HW296874   7.583   4.802   1.395
31623SOL     OW96875   8.781   4.748   1.229
31623SOL    HW196876   8.793   4.699   1.145
31623SOL    HW296877   8.716   4.815   1.203
31624SOL     OW96878   8.755   4.586   0.303
31624SOL    HW196879   8.677   4.547   0.344
31624SOL    HW296880   8.736   4.578   0.208
31625SOL     OW96881   9.213   5.477   1.127
31625SOL    HW196882   9.284   5.498   1.064
31625SOL    HW296883   9.202   5.380   1.112
31626SOL     OW96884   8.692   5.452   1.106
31626SOL    HW196885   8.778   5.482   1.072
31626SOL    HW296886   8.709   5.358   1.127
31627SOL     OW96887   7.550   4.965   1.046
31627SOL    HW196888   7.514   5.003   1.130
31627SOL    HW296889   7.470   4.946   0.995
31628SOL     OW96890   8.161   5.356   1.757
31628SOL    HW196891   8.145   5.444   1.721
31628SOL    HW296892   8.256   5.343   1.738
31629SOL     OW96893   8.365   3.837   0.148
31629SOL    HW196894   8.418   3.800   0.077
31629SOL    HW296895   8.394   3.780   0.221
31630SOL     OW96896   9.129   3.862   0.496
31630SOL    HW196897   9.209   3.850   0.442
31630SOL    HW296898   9.128   3.780   0.550
31631SOL     OW96899   8.805   5.292   0.479
31631SOL    HW196900   8.878   5.308   0.416
31631SOL    HW296901   8.775   5.383   0.497
31632SOL     OW96902   7.593   5.515   1.828
31632SOL    HW196903   7.550   5.444   1.881
31632SOL    HW296904   7.643   5.561   1.897
31633SOL     OW96905   8.705   4.641   0.631
31633SOL    HW196906   8.787   4.594   0.654
31633SOL    HW296907   8.739   4.724   0.593
31634SOL     OW96908   8.249   4.974   1.432
31634SOL    HW196909   8.231   5.030   1.510
31634SOL    HW296910   8.175   4.998   1.374
31635SOL     OW96911   8.137   5.349   0.172
31635SOL    HW196912   8.141   5.366   0.077
31635SOL    HW296913   8.068   5.278   0.177
31636SOL     OW96914   9.081   5.451   1.391
31636SOL    HW196915   9.128   5.464   1.307
31636SOL    HW296916   9.070   5.543   1.424
31637SOL     OW96917   9.291   3.883   0.972
31637SOL    HW196918   9.317   3.798   0.933
31637SOL    HW296919   9.208   3.905   0.923
31638SOL     OW96920   7.680   4.023   0.741
31638SOL    HW196921   7.606   4.053   0.684
31638SOL    HW296922   7.741   4.097   0.734
31639SOL     OW96923   8.661   5.318   0.039
31639SOL    HW196924   8.666   5.223   0.060
31639SOL    HW296925   8.595   5.319  11.067
31640SOL     OW96926   8.269   4.716   1.376
31640SOL    HW196927   8.302   4.731   1.287
31640SOL    HW296928   8.266   4.808   1.412
31641SOL     OW96929   8.352   4.621   0.261
31641SOL    HW196930   8.417   4.669   0.205
31641SOL    HW296931   8.406   4.552   0.301
31642SOL     OW96932   8.960   5.329   0.044
31642SOL    HW196933   8.864   5.343   0.040
31642SOL    HW296934   8.989   5.343  11.054
31643SOL     OW96935   7.784   5.005   1.487
31643SOL    HW196936   7.778   5.084   1.431
31643SOL    HW296937   7.700   4.960   1.474
31644SOL     OW96938   9.048   5.029   1.262
31644SOL    HW196939   9.097   5.004   1.342
31644SOL    HW296940   8.991   5.101   1.296
31645SOL     OW96941   8.491   4.844   0.730
31645SOL    HW196942   8.417   4.786   0.755
31645SOL    HW296943   8.551   4.784   0.686
31646SOL     OW96944   8.474   3.957   0.995
31646SOL    HW196945   8.451   3.915   0.909
31646SOL    HW296946   8.481   3.877   1.051
31647SOL     OW96947   8.059   5.220   0.482
31647SOL    HW196948   8.105   5.174   0.409
31647SOL    HW296949   7.984   5.260   0.436
31648SOL     OW96950   9.158   4.099   1.379
31648SOL    HW196951   9.222   4.173   1.379
31648SOL    HW296952   9.205   4.033   1.323
31649SOL     OW96953   7.702   5.084   0.273
31649SOL    HW196954   7.607   5.086   0.247
31649SOL    HW296955   7.696   5.116   0.366
31650SOL     OW96956   7.566   4.707   1.694
31650SOL    HW196957   7.496   4.707   1.763
31650SOL    HW296958   7.648   4.693   1.747
31651SOL     OW96959   8.137   3.911   1.473
31651SOL    HW196960   8.221   3.875   1.437
31651SOL    HW296961   8.165   3.940   1.560
31652SOL     OW96962   7.575   4.081   0.002
31652SOL    HW196963   7.488   4.043  11.080
31652SOL    HW296964   7.561   4.174  11.082
31653SOL     OW96965   8.904   4.565   1.379
31653SOL    HW196966   8.861   4.633   1.323
31653SOL    HW296967   8.995   4.600   1.384
31654SOL     OW96968   7.494   3.894   0.328
31654SOL    HW196969   7.491   3.971   0.269
31654SOL    HW296970   7.583   3.860   0.307
31655SOL     OW96971   8.639   5.050   0.120
31655SOL    HW196972   8.542   5.047   0.109
31655SOL    HW296973   8.649   5.042   0.217
31656SOL     OW96974   8.070   4.537   1.436
31656SOL    HW196975   8.127   4.616   1.429
31656SOL    HW296976   8.139   4.469   1.446
31657SOL     OW96977   8.956   5.501   0.956
31657SOL    HW196978   8.996   5.544   0.880
31657SOL    HW296979   9.032   5.484   1.013
31658SOL     OW96980   8.183   4.254   1.720
31658SOL    HW196981   8.212   4.339   1.759
31658SOL    HW296982   8.244   4.191   1.758
31659SOL     OW96983   8.917   4.874   1.631
31659SOL    HW196984   8.896   4.902   1.722
31659SOL    HW296985   9.003   4.917   1.617
31660SOL     OW96986   7.820   5.459   1.565
31660SOL    HW196987   7.733   5.501   1.552
31660SOL    HW296988   7.793   5.374   1.604
31661SOL     OW96989   9.157   4.606   1.230
31661SOL    HW196990   9.121   4.518   1.206
31661SOL    HW296991   9.110   4.666   1.170
31662SOL     OW96992   8.657   4.038   0.487
31662SOL    HW196993   8.723   3.970   0.465
31662SOL    HW296994   8.699   4.086   0.561
31663SOL     OW96995   8.029   4.466   0.683
31663SOL    HW196996   8.061   4.556   0.665
31663SOL    HW296997   7.973   4.448   0.605
31664SOL     OW96998   9.214   4.104   1.643
31664SOL    HW196999   9.185   4.115   1.550
31664SOL    HW297000   9.138   4.056   1.680
31665SOL     OW97001   9.182   4.664   1.494
31665SOL    HW197002   9.189   4.760   1.491
31665SOL    HW297003   9.201   4.638   1.402
31666SOL     OW97004   8.357   5.077   0.044
31666SOL    HW197005   8.272   5.079   0.090
31666SOL    HW297006   8.359   5.164   0.000
31667SOL     OW97007   8.087   5.517   0.901
31667SOL    HW197008   8.064   5.611   0.899
31667SOL    HW297009   8.177   5.518   0.935
31668SOL     OW97010   8.319   4.671   0.849
31668SOL    HW197011   8.373   4.604   0.894
31668SOL    HW297012   8.302   4.735   0.919
31669SOL     OW97013   8.499   4.722   0.070
31669SOL    HW197014   8.505   4.794   0.006
31669SOL    HW297015   8.579   4.669   0.051
31670SOL     OW97016   9.297   5.276   0.809
31670SOL    HW197017   9.201   5.272   0.800
31670SOL    HW297018   9.314   5.217   0.883
31671SOL     OW97019   7.680   5.037   1.862
31671SOL    HW197020   7.600   4.985   1.851
31671SOL    HW297021   7.679   5.054   1.958
31672SOL     OW97022   7.540   4.964   0.669
31672SOL    HW197023   7.592   4.931   0.744
31672SOL    HW297024   7.598   4.943   0.594
31673SOL     OW97025   8.115   5.126   1.613
31673SOL    HW197026   8.040   5.079   1.653
31673SOL    HW297027   8.116   5.210   1.662
31674SOL     OW97028   9.269   3.892   1.234
31674SOL    HW197029   9.288   3.797   1.236
31674SOL    HW297030   9.276   3.908   1.137
31675SOL     OW97031   7.886   4.128   0.517
31675SOL    HW197032   7.939   4.089   0.445
31675SOL    HW297033   7.846   4.051   0.557
31676SOL     OW97034   9.166   5.218   1.080
31676SOL    HW197035   9.079   5.191   1.046
31676SOL    HW297036   9.175   5.160   1.157
31677SOL     OW97037   7.772   4.251   1.279
31677SOL    HW197038   7.841   4.216   1.339
31677SOL    HW297039   7.798   4.217   1.192
31678SOL     OW97040   8.265   5.295   0.669
31678SOL    HW197041   8.249   5.292   0.574
31678SOL    HW297042   8.178   5.271   0.703
31679SOL     OW97043   8.876   3.960   1.091
31679SOL    HW197044   8.919   3.882   1.128
31679SOL    HW297045   8.837   4.003   1.170
31680SOL     OW97046   8.467   3.731   1.152
31680SOL    HW197047   8.410   3.657   1.127
31680SOL    HW297048   8.556   3.688   1.149
31681SOL     OW97049   8.214   5.067   0.316
31681SOL    HW197050   8.202   4.971   0.325
31681SOL    HW297051   8.297   5.081   0.365
31682SOL     OW97052   8.047   5.289   1.269
31682SOL    HW197053   8.045   5.373   1.319
31682SOL    HW297054   8.142   5.283   1.253
31683SOL     OW97055   8.770   3.750   0.165
31683SOL    HW197056   8.785   3.712   0.077
31683SOL    HW297057   8.682   3.714   0.187
31684SOL     OW97058   8.764   4.200   0.695
31684SOL    HW197059   8.702   4.275   0.694
31684SOL    HW297060   8.744   4.161   0.782
31685SOL     OW97061   9.052   3.932   0.857
31685SOL    HW197062   8.975   3.945   0.914
31685SOL    HW297063   9.051   4.011   0.800
31686SOL     OW97064   7.496   4.808   0.269
31686SOL    HW197065   7.593   4.806   0.281
31686SOL    HW297066   7.472   4.720   0.303
31687SOL     OW97067   8.338   5.361   0.362
31687SOL    HW197068   8.262   5.349   0.301
31687SOL    HW297069   8.319   5.450   0.399
31688SOL     OW97070   7.669   4.362   1.991
31688SOL    HW197071   7.587   4.359   2.041
31688SOL    HW297072   7.656   4.434   1.929
31689SOL     OW97073   7.682   3.997   2.850
31689SOL    HW197074   7.705   3.979   2.943
31689SOL    HW297075   7.592   3.958   2.846
31690SOL     OW97076   7.441   4.136   2.492
31690SOL    HW197077   7.356   4.156   2.538
31690SOL    HW297078   7.424   4.046   2.460
31691SOL     OW97079   8.024   5.042   3.026
31691SOL    HW197080   7.928   5.027   3.024
31691SOL    HW297081   8.025   5.135   3.057
31692SOL     OW97082   9.007   5.236   2.581
31692SOL    HW197083   8.967   5.217   2.669
31692SOL    HW297084   8.931   5.232   2.520
31693SOL     OW97085   8.594   4.408   2.584
31693SOL    HW197086   8.616   4.498   2.554
31693SOL    HW297087   8.542   4.426   2.664
31694SOL     OW97088   9.224   4.338   2.104
31694SOL    HW197089   9.207   4.336   2.007
31694SOL    HW297090   9.187   4.254   2.132
31695SOL     OW97091   8.158   4.871   2.874
31695SOL    HW197092   8.109   4.932   2.933
31695SOL    HW297093   8.249   4.897   2.885
31696SOL     OW97094   8.306   4.479   3.676
31696SOL    HW197095   8.302   4.553   3.739
31696SOL    HW297096   8.326   4.525   3.593
31697SOL     OW97097   8.140   4.753   2.510
31697SOL    HW197098   8.203   4.726   2.579
31697SOL    HW297099   8.069   4.795   2.561
31698SOL     OW97100   8.185   4.869   3.648
31698SOL    HW197101   8.214   4.956   3.681
31698SOL    HW297102   8.091   4.885   3.626
31699SOL     OW97103   7.754   5.165   2.948
31699SOL    HW197104   7.691   5.125   2.887
31699SOL    HW297105   7.814   5.216   2.891
31700SOL     OW97106   8.918   5.226   3.240
31700SOL    HW197107   8.976   5.304   3.248
31700SOL    HW297108   8.847   5.246   3.304
31701SOL     OW97109   7.916   4.122   3.370
31701SOL    HW197110   7.974   4.046   3.382
31701SOL    HW297111   7.827   4.084   3.380
31702SOL     OW97112   9.068   4.176   2.601
31702SOL    HW197113   8.996   4.212   2.547
31702SOL    HW297114   9.052   4.220   2.687
31703SOL     OW97115   7.663   5.432   2.334
31703SOL    HW197116   7.688   5.511   2.387
31703SOL    HW297117   7.731   5.433   2.264
31704SOL     OW97118   8.575   5.077   3.511
31704SOL    HW197119   8.613   5.083   3.600
31704SOL    HW297120   8.537   4.987   3.515
31705SOL     OW97121   7.695   5.156   2.397
31705SOL    HW197122   7.692   5.253   2.396
31705SOL    HW297123   7.623   5.134   2.457
31706SOL     OW97124   7.719   4.818   2.770
31706SOL    HW197125   7.717   4.740   2.827
31706SOL    HW297126   7.662   4.880   2.820
31707SOL     OW97127   8.054   5.537   3.249
31707SOL    HW197128   7.989   5.499   3.310
31707SOL    HW297129   8.077   5.621   3.293
31708SOL     OW97130   8.012   4.727   1.976
31708SOL    HW197131   8.065   4.773   1.907
31708SOL    HW297132   8.059   4.757   2.056
31709SOL     OW97133   9.048   3.846   3.344
31709SOL    HW197134   9.054   3.933   3.301
31709SOL    HW297135   9.055   3.871   3.437
31710SOL     OW97136   7.560   4.386   2.429
31710SOL    HW197137   7.526   4.297   2.447
31710SOL    HW297138   7.558   4.429   2.517
31711SOL     OW97139   9.304   5.469   2.212
31711SOL    HW197140   9.369   5.452   2.282
31711SOL    HW297141   9.323   5.562   2.190
31712SOL     OW97142   7.503   5.313   1.981
31712SOL    HW197143   7.486   5.220   2.005
31712SOL    HW297144   7.468   5.362   2.059
31713SOL     OW97145   9.143   4.661   2.522
31713SOL    HW197146   9.209   4.611   2.473
31713SOL    HW297147   9.099   4.709   2.450
31714SOL     OW97148   9.086   4.842   2.314
31714SOL    HW197149   9.170   4.842   2.265
31714SOL    HW297150   9.098   4.918   2.373
31715SOL     OW97151   7.555   4.483   3.436
31715SOL    HW197152   7.648   4.473   3.461
31715SOL    HW297153   7.536   4.567   3.482
31716SOL     OW97154   8.049   5.118   2.628
31716SOL    HW197155   8.001   5.033   2.639
31716SOL    HW297156   8.032   5.136   2.534
31717SOL     OW97157   8.734   4.950   3.286
31717SOL    HW197158   8.768   4.880   3.227
31717SOL    HW297159   8.795   4.943   3.363
31718SOL     OW97160   8.286   3.726   2.354
31718SOL    HW197161   8.309   3.820   2.356
31718SOL    HW297162   8.190   3.728   2.372
31719SOL     OW97163   7.609   4.696   3.115
31719SOL    HW197164   7.702   4.670   3.118
31719SOL    HW297165   7.565   4.613   3.091
31720SOL     OW97166   8.990   4.694   2.057
31720SOL    HW197167   8.905   4.655   2.084
31720SOL    HW297168   9.030   4.716   2.142
31721SOL     OW97169   8.623   5.534   3.462
31721SOL    HW197170   8.626   5.605   3.397
31721SOL    HW297171   8.650   5.455   3.412
31722SOL     OW97172   7.795   3.963   3.634
31722SOL    HW197173   7.834   4.035   3.685
31722SOL    HW297174   7.701   3.972   3.659
31723SOL     OW97175   8.910   5.147   2.820
31723SOL    HW197176   8.854   5.169   2.897
31723SOL    HW297177   8.874   5.061   2.792
31724SOL     OW97178   9.124   5.449   2.469
31724SOL    HW197179   9.106   5.419   2.378
31724SOL    HW297180   9.085   5.377   2.522
31725SOL     OW97181   8.020   4.439   2.113
31725SOL    HW197182   8.033   4.528   2.077
31725SOL    HW297183   7.954   4.455   2.183
31726SOL     OW97184   8.717   4.055   2.772
31726SOL    HW197185   8.629   4.022   2.795
31726SOL    HW297186   8.770   4.020   2.846
31727SOL     OW97187   9.015   5.370   2.177
31727SOL    HW197188   9.108   5.394   2.172
31727SOL    HW297189   8.995   5.362   2.082
31728SOL     OW97190   8.237   4.345   3.336
31728SOL    HW197191   8.242   4.286   3.412
31728SOL    HW297192   8.194   4.288   3.270
31729SOL     OW97193   8.851   4.190   3.526
31729SOL    HW197194   8.859   4.247   3.605
31729SOL    HW297195   8.911   4.116   3.547
31730SOL     OW97196   8.417   4.604   3.440
31730SOL    HW197197   8.453   4.523   3.399
31730SOL    HW297198   8.371   4.646   3.365
31731SOL     OW97199   8.406   4.137   3.090
31731SOL    HW197200   8.311   4.150   3.103
31731SOL    HW297201   8.412   4.074   3.017
31732SOL     OW97202   8.497   4.405   2.271
31732SOL    HW197203   8.510   4.425   2.365
31732SOL    HW297204   8.410   4.359   2.272
31733SOL     OW97205   7.553   4.537   2.657
31733SOL    HW197206   7.625   4.534   2.723
31733SOL    HW297207   7.506   4.618   2.684
31734SOL     OW97208   7.545   5.564   3.430
31734SOL    HW197209   7.542   5.518   3.515
31734SOL    HW297210   7.459   5.542   3.392
31735SOL     OW97211   8.321   4.107   2.048
31735SOL    HW197212   8.375   4.167   1.993
31735SOL    HW297213   8.381   4.033   2.062
31736SOL     OW97214   9.170   4.326   3.700
31736SOL    HW197215   9.135   4.396   3.640
31736SOL    HW297216   9.206   4.265   3.635
31737SOL     OW97217   8.813   4.886   2.434
31737SOL    HW197218   8.884   4.864   2.372
31737SOL    HW297219   8.759   4.946   2.378
31738SOL     OW97220   8.005   3.925   2.757
31738SOL    HW197221   8.001   3.940   2.853
31738SOL    HW297222   7.990   4.014   2.721
31739SOL     OW97223   8.440   5.165   2.365
31739SOL    HW197224   8.398   5.215   2.292
31739SOL    HW297225   8.443   5.231   2.435
31740SOL     OW97226   7.791   5.539   2.720
31740SOL    HW197227   7.836   5.454   2.738
31740SOL    HW297228   7.860   5.604   2.736
31741SOL     OW97229   8.674   5.287   3.342
31741SOL    HW197230   8.654   5.232   3.420
31741SOL    HW297231   8.621   5.243   3.275
31742SOL     OW97232   7.762   4.693   2.127
31742SOL    HW197233   7.839   4.709   2.071
31742SOL    HW297234   7.740   4.602   2.107
31743SOL     OW97235   8.916   4.481   2.575
31743SOL    HW197236   8.899   4.429   2.655
31743SOL    HW297237   8.999   4.525   2.597
31744SOL     OW97238   7.911   4.962   3.560
31744SOL    HW197239   7.836   4.935   3.506
31744SOL    HW297240   7.867   4.983   3.645
31745SOL     OW97241   8.541   5.491   2.103
31745SOL    HW197242   8.469   5.439   2.143
31745SOL    HW297243   8.561   5.440   2.023
31746SOL     OW97244   7.618   4.016   3.355
31746SOL    HW197245   7.535   4.061   3.377
31746SOL    HW297246   7.605   3.929   3.397
31747SOL     OW97247   9.067   5.088   1.959
31747SOL    HW197248   9.025   5.169   1.927
31747SOL    HW297249   9.004   5.019   1.929
31748SOL     OW97250   7.901   5.450   2.190
31748SOL    HW197251   7.948   5.509   2.252
31748SOL    HW297252   7.971   5.422   2.129
31749SOL     OW97253   8.854   3.818   2.292
31749SOL    HW197254   8.823   3.781   2.208
31749SOL    HW297255   8.944   3.846   2.269
31750SOL     OW97256   7.698   5.525   3.101
31750SOL    HW197257   7.753   5.454   3.136
31750SOL    HW297258   7.671   5.489   3.015
31751SOL     OW97259   8.411   5.375   2.762
31751SOL    HW197260   8.508   5.370   2.754
31751SOL    HW297261   8.382   5.371   2.670
31752SOL     OW97262   7.812   4.421   2.318
31752SOL    HW197263   7.840   4.329   2.335
31752SOL    HW297264   7.721   4.418   2.353
31753SOL     OW97265   8.993   3.971   3.587
31753SOL    HW197266   9.000   3.983   3.685
31753SOL    HW297267   8.942   3.889   3.584
31754SOL     OW97268   8.072   3.846   1.964
31754SOL    HW197269   8.131   3.779   2.001
31754SOL    HW297270   8.025   3.797   1.894
31755SOL     OW97271   8.212   3.968   3.590
31755SOL    HW197272   8.293   3.914   3.607
31755SOL    HW297273   8.162   3.957   3.672
31756SOL     OW97274   8.355   5.272   3.063
31756SOL    HW197275   8.387   5.260   2.973
31756SOL    HW297276   8.408   5.210   3.116
31757SOL     OW97277   8.787   4.323   3.290
31757SOL    HW197278   8.835   4.282   3.365
31757SOL    HW297279   8.833   4.408   3.279
31758SOL     OW97280   8.383   4.247   2.771
31758SOL    HW197281   8.367   4.238   2.674
31758SOL    HW297282   8.411   4.157   2.794
31759SOL     OW97283   8.009   3.772   2.361
31759SOL    HW197284   7.931   3.777   2.420
31759SOL    HW297285   7.999   3.854   2.309
31760SOL     OW97286   8.890   4.904   1.895
31760SOL    HW197287   8.907   4.831   1.957
31760SOL    HW297288   8.797   4.927   1.911
31761SOL     OW97289   7.725   3.772   2.049
31761SOL    HW197290   7.791   3.840   2.033
31761SOL    HW297291   7.781   3.704   2.093
31762SOL     OW97292   8.374   3.984   2.357
31762SOL    HW197293   8.347   4.042   2.285
31762SOL    HW297294   8.471   3.998   2.361
31763SOL     OW97295   8.531   4.394   3.317
31763SOL    HW197296   8.488   4.307   3.320
31763SOL    HW297297   8.626   4.371   3.320
31764SOL     OW97298   8.675   5.314   2.655
31764SOL    HW197299   8.682   5.374   2.578
31764SOL    HW297300   8.756   5.334   2.702
31765SOL     OW97301   7.923   4.879   2.605
31765SOL    HW197302   7.847   4.852   2.661
31765SOL    HW297303   7.886   4.865   2.515
31766SOL     OW97304   8.702   5.528   2.476
31766SOL    HW197305   8.745   5.590   2.413
31766SOL    HW297306   8.657   5.589   2.537
31767SOL     OW97307   8.507   4.262   1.882
31767SOL    HW197308   8.462   4.346   1.866
31767SOL    HW297309   8.582   4.287   1.939
31768SOL     OW97310   7.513   4.280   3.264
31768SOL    HW197311   7.608   4.260   3.259
31768SOL    HW297312   7.512   4.360   3.322
31769SOL     OW97313   8.018   3.955   3.024
31769SOL    HW197314   8.064   3.883   3.070
31769SOL    HW297315   7.927   3.946   3.059
31770SOL     OW97316   8.329   4.194   2.524
31770SOL    HW197317   8.271   4.235   2.458
31770SOL    HW297318   8.338   4.103   2.491
31771SOL     OW97319   8.513   3.791   2.638
31771SOL    HW197320   8.454   3.794   2.561
31771SOL    HW297321   8.477   3.715   2.688
31772SOL     OW97322   8.854   4.897   2.733
31772SOL    HW197323   8.815   4.811   2.758
31772SOL    HW297324   8.842   4.896   2.637
31773SOL     OW97325   8.946   4.285   2.830
31773SOL    HW197326   8.883   4.217   2.858
31773SOL    HW297327   9.001   4.296   2.911
31774SOL     OW97328   9.286   4.553   2.262
31774SOL    HW197329   9.339   4.495   2.320
31774SOL    HW297330   9.275   4.494   2.184
31775SOL     OW97331   7.947   5.139   1.991
31775SOL    HW197332   7.863   5.124   2.037
31775SOL    HW297333   7.934   5.093   1.908
31776SOL     OW97334   9.145   4.988   2.559
31776SOL    HW197335   9.236   5.005   2.527
31776SOL    HW297336   9.103   5.076   2.557
31777SOL     OW97337   8.850   4.312   1.918
31777SOL    HW197338   8.805   4.286   2.001
31777SOL    HW297339   8.939   4.278   1.933
31778SOL     OW97340   7.974   3.969   2.187
31778SOL    HW197341   8.018   3.930   2.109
31778SOL    HW297342   7.944   4.054   2.151
31779SOL     OW97343   9.174   4.962   3.433
31779SOL    HW197344   9.258   4.916   3.448
31779SOL    HW297345   9.201   5.053   3.455
31780SOL     OW97346   8.518   5.074   3.194
31780SOL    HW197347   8.442   5.049   3.250
31780SOL    HW297348   8.591   5.031   3.243
31781SOL     OW97349   9.065   5.323   3.492
31781SOL    HW197350   9.071   5.366   3.406
31781SOL    HW297351   9.147   5.270   3.494
31782SOL     OW97352   8.552   4.943   2.958
31782SOL    HW197353   8.519   4.991   3.036
31782SOL    HW297354   8.530   4.999   2.883
31783SOL     OW97355   9.076   4.862   2.894
31783SOL    HW197356   9.077   4.894   2.987
31783SOL    HW297357   8.991   4.895   2.863
31784SOL     OW97358   8.375   3.823   3.264
31784SOL    HW197359   8.406   3.804   3.174
31784SOL    HW297360   8.452   3.867   3.304
31785SOL     OW97361   8.458   4.840   3.592
31785SOL    HW197362   8.369   4.871   3.617
31785SOL    HW297363   8.437   4.760   3.541
31786SOL     OW97364   8.154   4.787   2.208
31786SOL    HW197365   8.149   4.771   2.303
31786SOL    HW297366   8.226   4.726   2.181
31787SOL     OW97367   7.858   4.538   3.123
31787SOL    HW197368   7.936   4.536   3.184
31787SOL    HW297369   7.819   4.450   3.139
31788SOL     OW97370   8.730   4.117   3.125
31788SOL    HW197371   8.751   4.190   3.188
31788SOL    HW297372   8.638   4.136   3.102
31789SOL     OW97373   7.818   4.845   2.362
31789SOL    HW197374   7.819   4.907   2.289
31789SOL    HW297375   7.803   4.761   2.316
31790SOL     OW97376   7.984   4.271   2.707
31790SOL    HW197377   8.010   4.335   2.638
31790SOL    HW297378   8.050   4.288   2.775
31791SOL     OW97379   8.682   5.058   2.269
31791SOL    HW197380   8.724   5.143   2.293
31791SOL    HW297381   8.589   5.077   2.291
31792SOL     OW97382   8.751   5.191   3.035
31792SOL    HW197383   8.813   5.202   3.111
31792SOL    HW297384   8.697   5.117   3.067
31793SOL     OW97385   9.017   4.332   2.323
31793SOL    HW197386   8.969   4.387   2.387
31793SOL    HW297387   9.062   4.400   2.269
31794SOL     OW97388   7.929   4.439   3.504
31794SOL    HW197389   7.967   4.477   3.422
31794SOL    HW297390   7.895   4.353   3.476
31795SOL     OW97391   9.069   4.496   3.527
31795SOL    HW197392   8.983   4.540   3.529
31795SOL    HW297393   9.119   4.553   3.465
31796SOL     OW97394   8.439   3.818   3.617
31796SOL    HW197395   8.500   3.890   3.601
31796SOL    HW297396   8.481   3.746   3.567
31797SOL     OW97397   7.953   3.733   3.618
31797SOL    HW197398   7.906   3.679   3.552
31797SOL    HW297399   7.895   3.812   3.621
31798SOL     OW97400   8.028   4.617   2.915
31798SOL    HW197401   8.055   4.710   2.911
31798SOL    HW297402   7.976   4.611   2.997
31799SOL     OW97403   8.825   4.572   2.869
31799SOL    HW197404   8.735   4.540   2.858
31799SOL    HW297405   8.873   4.491   2.890
31800SOL     OW97406   8.670   4.244   2.124
31800SOL    HW197407   8.677   4.176   2.193
31800SOL    HW297408   8.608   4.307   2.165
31801SOL     OW97409   7.752   3.930   3.101
31801SOL    HW197410   7.706   3.968   3.178
31801SOL    HW297411   7.722   3.837   3.105
31802SOL     OW97412   8.168   4.379   2.921
31802SOL    HW197413   8.246   4.366   2.864
31802SOL    HW297414   8.133   4.466   2.896
31803SOL     OW97415   9.209   4.671   3.707
31803SOL    HW197416   9.177   4.602   3.647
31803SOL    HW297417   9.135   4.679   3.769
31804SOL     OW97418   7.759   3.785   2.478
31804SOL    HW197419   7.725   3.874   2.499
31804SOL    HW297420   7.760   3.742   2.565
31805SOL     OW97421   9.043   4.089   2.233
31805SOL    HW197422   9.064   4.050   2.318
31805SOL    HW297423   9.030   4.182   2.260
31806SOL     OW97424   8.478   4.484   2.831
31806SOL    HW197425   8.470   4.499   2.927
31806SOL    HW297426   8.455   4.389   2.823
31807SOL     OW97427   8.432   5.301   3.571
31807SOL    HW197428   8.409   5.348   3.488
31807SOL    HW297429   8.455   5.212   3.539
31808SOL     OW97430   9.308   5.216   3.463
31808SOL    HW197431   9.338   5.239   3.374
31808SOL    HW297432   9.383   5.246   3.518
31809SOL     OW97433   7.808   4.635   3.632
31809SOL    HW197434   7.834   4.647   3.724
31809SOL    HW297435   7.858   4.556   3.605
31810SOL     OW97436   8.955   3.990   1.992
31810SOL    HW197437   8.880   3.937   2.025
31810SOL    HW297438   8.994   4.026   2.074
31811SOL     OW97439   8.744   4.557   1.890
31811SOL    HW197440   8.796   4.475   1.897
31811SOL    HW297441   8.770   4.588   1.800
31812SOL     OW97442   8.497   5.084   2.710
31812SOL    HW197443   8.517   5.004   2.656
31812SOL    HW297444   8.571   5.143   2.687
31813SOL     OW97445   7.737   4.531   2.855
31813SOL    HW197446   7.833   4.550   2.854
31813SOL    HW297447   7.736   4.441   2.890
31814SOL     OW97448   7.781   4.243   2.878
31814SOL    HW197449   7.750   4.153   2.857
31814SOL    HW297450   7.850   4.257   2.810
31815SOL     OW97451   8.592   4.129   3.550
31815SOL    HW197452   8.559   4.172   3.631
31815SOL    HW297453   8.687   4.153   3.549
31816SOL     OW97454   8.611   3.933   3.354
31816SOL    HW197455   8.611   4.003   3.423
31816SOL    HW297456   8.662   3.976   3.284
31817SOL     OW97457   7.457   5.049   2.049
31817SOL    HW197458   7.366   5.060   2.011
31817SOL    HW297459   7.451   4.961   2.089
31818SOL     OW97460   7.542   5.510   2.804
31818SOL    HW197461   7.520   5.439   2.740
31818SOL    HW297462   7.634   5.533   2.777
31819SOL     OW97463   7.924   5.307   2.786
31819SOL    HW197464   7.996   5.370   2.797
31819SOL    HW297465   7.966   5.236   2.734
31820SOL     OW97466   8.430   4.508   3.094
31820SOL    HW197467   8.476   4.467   3.171
31820SOL    HW297468   8.339   4.480   3.112
31821SOL     OW97469   7.485   4.252   2.970
31821SOL    HW197470   7.571   4.247   2.926
31821SOL    HW297471   7.509   4.268   3.062
31822SOL     OW97472   7.685   4.259   3.556
31822SOL    HW197473   7.664   4.165   3.562
31822SOL    HW297474   7.599   4.297   3.537
31823SOL     OW97475   8.822   4.640   3.511
31823SOL    HW197476   8.831   4.737   3.521
31823SOL    HW297477   8.832   4.629   3.415
31824SOL     OW97478   8.249   4.301   2.234
31824SOL    HW197479   8.255   4.238   2.160
31824SOL    HW297480   8.172   4.354   2.209
31825SOL     OW97481   9.081   4.342   3.058
31825SOL    HW197482   9.062   4.293   3.140
31825SOL    HW297483   9.170   4.309   3.037
31826SOL     OW97484   8.134   4.202   3.129
31826SOL    HW197485   8.087   4.126   3.092
31826SOL    HW297486   8.130   4.268   3.057
31827SOL     OW97487   8.368   5.410   3.340
31827SOL    HW197488   8.337   5.386   3.252
31827SOL    HW297489   8.370   5.508   3.336
31828SOL     OW97490   7.887   4.192   2.050
31828SOL    HW197491   7.955   4.260   2.058
31828SOL    HW297492   7.807   4.248   2.047
31829SOL     OW97493   7.634   4.867   3.344
31829SOL    HW197494   7.614   4.812   3.422
31829SOL    HW297495   7.615   4.810   3.269
31830SOL     OW97496   8.764   4.779   3.071
31830SOL    HW197497   8.780   4.711   3.004
31830SOL    HW297498   8.684   4.824   3.039
31831SOL     OW97499   8.761   4.583   2.156
31831SOL    HW197500   8.679   4.550   2.196
31831SOL    HW297501   8.740   4.582   2.061
31832SOL     OW97502   9.205   5.470   2.995
31832SOL    HW197503   9.276   5.497   2.934
31832SOL    HW297504   9.198   5.374   2.977
31833SOL     OW97505   8.687   5.448   2.975
31833SOL    HW197506   8.779   5.471   2.953
31833SOL    HW297507   8.695   5.354   2.999
31834SOL     OW97508   7.546   4.976   2.896
31834SOL    HW197509   7.527   4.986   2.990
31834SOL    HW297510   7.464   4.938   2.863
31835SOL     OW97511   8.135   5.377   3.590
31835SOL    HW197512   8.085   5.460   3.596
31835SOL    HW297513   8.222   5.407   3.560
31836SOL     OW97514   8.802   5.299   2.348
31836SOL    HW197515   8.863   5.316   2.273
31836SOL    HW297516   8.769   5.388   2.368
31837SOL     OW97517   8.694   4.655   2.520
31837SOL    HW197518   8.774   4.602   2.537
31837SOL    HW297519   8.731   4.733   2.475
31838SOL     OW97520   8.239   4.979   3.285
31838SOL    HW197521   8.222   5.020   3.373
31838SOL    HW297522   8.156   5.002   3.240
31839SOL     OW97523   8.117   5.339   2.032
31839SOL    HW197524   8.134   5.351   1.937
31839SOL    HW297525   8.061   5.258   2.028
31840SOL     OW97526   9.070   5.446   3.244
31840SOL    HW197527   9.118   5.464   3.161
31840SOL    HW297528   9.057   5.536   3.281
31841SOL     OW97529   9.289   3.899   2.829
31841SOL    HW197530   9.304   3.803   2.821
31841SOL    HW297531   9.197   3.912   2.799
31842SOL     OW97532   7.689   4.046   2.555
31842SOL    HW197533   7.604   4.094   2.547
31842SOL    HW297534   7.705   4.048   2.651
31843SOL     OW97535   8.701   5.349   1.910
31843SOL    HW197536   8.700   5.256   1.937
31843SOL    HW297537   8.637   5.348   1.836
31844SOL     OW97538   8.279   4.723   3.241
31844SOL    HW197539   8.334   4.725   3.162
31844SOL    HW297540   8.267   4.818   3.262
31845SOL     OW97541   8.354   4.626   2.135
31845SOL    HW197542   8.429   4.666   2.086
31845SOL    HW297543   8.396   4.550   2.179
31846SOL     OW97544   8.996   5.353   1.899
31846SOL    HW197545   8.899   5.357   1.893
31846SOL    HW297546   9.021   5.357   1.804
31847SOL     OW97547   9.055   5.029   3.133
31847SOL    HW197548   9.110   5.006   3.209
31847SOL    HW297549   8.993   5.094   3.173
31848SOL     OW97550   8.495   4.841   2.590
31848SOL    HW197551   8.427   4.783   2.629
31848SOL    HW297552   8.553   4.776   2.546
31849SOL     OW97553   8.480   3.952   2.853
31849SOL    HW197554   8.479   3.903   2.768
31849SOL    HW297555   8.476   3.878   2.917
31850SOL     OW97556   8.066   5.216   2.374
31850SOL    HW197557   8.118   5.172   2.303
31850SOL    HW297558   7.995   5.256   2.322
31851SOL     OW97559   9.120   4.089   3.244
31851SOL    HW197560   9.185   4.163   3.252
31851SOL    HW297561   9.173   4.027   3.190
31852SOL     OW97562   7.708   5.093   2.135
31852SOL    HW197563   7.611   5.083   2.128
31852SOL    HW297564   7.717   5.117   2.230
31853SOL     OW97565   7.567   4.718   3.555
31853SOL    HW197566   7.499   4.720   3.625
31853SOL    HW297567   7.650   4.698   3.604
31854SOL     OW97568   8.122   3.907   3.345
31854SOL    HW197569   8.210   3.876   3.317
31854SOL    HW297570   8.142   3.939   3.436
31855SOL     OW97571   7.525   4.107   1.852
31855SOL    HW197572   7.474   4.028   1.877
31855SOL    HW297573   7.469   4.179   1.888
31856SOL     OW97574   8.888   4.593   3.251
31856SOL    HW197575   8.851   4.656   3.187
31856SOL    HW297576   8.983   4.608   3.240
31857SOL     OW97577   7.487   3.891   2.156
31857SOL    HW197578   7.502   3.986   2.148
31857SOL    HW297579   7.571   3.854   2.124
31858SOL     OW97580   8.652   5.080   1.988
31858SOL    HW197581   8.565   5.043   1.970
31858SOL    HW297582   8.666   5.064   2.083
31859SOL     OW97583   8.071   4.541   3.278
31859SOL    HW197584   8.128   4.620   3.278
31859SOL    HW297585   8.136   4.473   3.304
31860SOL     OW97586   8.958   5.493   2.821
31860SOL    HW197587   8.985   5.553   2.750
31860SOL    HW297588   9.039   5.484   2.872
31861SOL     OW97589   8.897   4.906   3.500
31861SOL    HW197590   8.886   4.916   3.597
31861SOL    HW297591   8.990   4.930   3.488
31862SOL     OW97592   7.818   5.476   3.418
31862SOL    HW197593   7.734   5.522   3.406
31862SOL    HW297594   7.792   5.395   3.464
31863SOL     OW97595   9.137   4.609   3.094
31863SOL    HW197596   9.132   4.513   3.078
31863SOL    HW297597   9.099   4.647   3.013
31864SOL     OW97598   8.640   4.044   2.341
31864SOL    HW197599   8.713   3.982   2.329
31864SOL    HW297600   8.673   4.099   2.416
31865SOL     OW97601   8.039   4.471   2.520
31865SOL    HW197602   8.068   4.564   2.511
31865SOL    HW297603   7.959   4.469   2.465
31866SOL     OW97604   9.236   4.092   3.517
31866SOL    HW197605   9.234   4.142   3.433
31866SOL    HW297606   9.147   4.054   3.524
31867SOL     OW97607   9.182   4.669   3.360
31867SOL    HW197608   9.196   4.765   3.360
31867SOL    HW297609   9.202   4.644   3.268
31868SOL     OW97610   8.300   5.077   1.906
31868SOL    HW197611   8.274   5.134   1.980
31868SOL    HW297612   8.350   5.138   1.848
31869SOL     OW97613   8.097   5.524   2.754
31869SOL    HW197614   8.074   5.619   2.746
31869SOL    HW297615   8.183   5.525   2.797
31870SOL     OW97616   8.312   4.676   2.714
31870SOL    HW197617   8.360   4.602   2.756
31870SOL    HW297618   8.255   4.708   2.785
31871SOL     OW97619   8.550   4.723   1.969
31871SOL    HW197620   8.512   4.775   1.896
31871SOL    HW297621   8.612   4.665   1.922
31872SOL     OW97622   9.305   5.274   2.713
31872SOL    HW197623   9.229   5.297   2.659
31872SOL    HW297624   9.265   5.230   2.790
31873SOL     OW97625   7.720   4.970   3.762
31873SOL    HW197626   7.643   4.937   3.715
31873SOL    HW297627   7.715   4.917   3.843
31874SOL     OW97628   7.522   4.975   2.526
31874SOL    HW197629   7.522   4.919   2.605
31874SOL    HW297630   7.608   4.954   2.487
31875SOL     OW97631   8.122   5.124   3.479
31875SOL    HW197632   8.045   5.071   3.506
31875SOL    HW297633   8.108   5.209   3.526
31876SOL     OW97634   9.257   3.909   3.095
31876SOL    HW197635   9.271   3.815   3.113
31876SOL    HW297636   9.276   3.914   3.000
31877SOL     OW97637   7.873   4.161   2.378
31877SOL    HW197638   7.923   4.086   2.342
31877SOL    HW297639   7.825   4.121   2.452
31878SOL     OW97640   9.169   5.203   2.943
31878SOL    HW197641   9.079   5.180   2.916
31878SOL    HW297642   9.177   5.152   3.025
31879SOL     OW97643   7.791   4.257   3.161
31879SOL    HW197644   7.860   4.216   3.216
31879SOL    HW297645   7.810   4.223   3.072
31880SOL     OW97646   8.263   5.320   2.536
31880SOL    HW197647   8.276   5.395   2.475
31880SOL    HW297648   8.178   5.286   2.502
31881SOL     OW97649   8.875   3.972   2.965
31881SOL    HW197650   8.926   3.911   3.019
31881SOL    HW297651   8.824   4.021   3.034
31882SOL     OW97652   8.473   3.738   3.023
31882SOL    HW197653   8.413   3.664   3.005
31882SOL    HW297654   8.560   3.693   3.018
31883SOL     OW97655   8.216   5.076   2.205
31883SOL    HW197656   8.181   4.994   2.168
31883SOL    HW297657   8.296   5.043   2.250
31884SOL     OW97658   8.058   5.298   3.082
31884SOL    HW197659   8.033   5.372   3.139
31884SOL    HW297660   8.153   5.292   3.102
31885SOL     OW97661   8.759   3.775   2.031
31885SOL    HW197662   8.783   3.700   1.976
31885SOL    HW297663   8.672   3.742   2.067
31886SOL     OW97664   8.747   4.190   2.543
31886SOL    HW197665   8.691   4.269   2.549
31886SOL    HW297666   8.731   4.146   2.629
31887SOL     OW97667   9.045   3.924   2.707
31887SOL    HW197668   8.965   3.918   2.761
31887SOL    HW297669   9.039   4.014   2.671
31888SOL     OW97670   7.482   4.799   2.166
31888SOL    HW197671   7.578   4.800   2.151
31888SOL    HW297672   7.470   4.705   2.193
31889SOL     OW97673   8.330   5.370   2.205
31889SOL    HW197674   8.255   5.356   2.143
31889SOL    HW297675   8.306   5.453   2.251
31890SOL     OW97676   7.680   4.347   3.832
31890SOL    HW197677   7.616   4.281   3.868
31890SOL    HW297678   7.683   4.326   3.737
31891SOL     OW97679   7.703   3.985   4.737
31891SOL    HW197680   7.705   3.973   4.833
31891SOL    HW297681   7.609   3.967   4.719
31892SOL     OW97682   8.995   5.240   4.431
31892SOL    HW197683   8.965   5.234   4.524
31892SOL    HW297684   8.908   5.251   4.387
31893SOL     OW97685   9.232   4.323   3.957
31893SOL    HW197686   9.207   4.322   3.862
31893SOL    HW297687   9.168   4.262   3.996
31894SOL     OW97688   8.161   4.864   4.738
31894SOL    HW197689   8.184   4.898   4.824
31894SOL    HW297690   8.196   4.933   4.678
31895SOL     OW97691   8.331   4.497   5.535
31895SOL    HW197692   8.300   4.566   5.594
31895SOL    HW297693   8.358   4.549   5.456
31896SOL     OW97694   8.109   4.887   5.570
31896SOL    HW197695   8.202   4.877   5.544
31896SOL    HW297696   8.072   4.913   5.484
31897SOL     OW97697   8.892   5.239   5.069
31897SOL    HW197698   8.946   5.314   5.097
31897SOL    HW297699   8.814   5.245   5.127
31898SOL     OW97700   9.072   4.177   4.469
31898SOL    HW197701   9.008   4.212   4.405
31898SOL    HW297702   9.038   4.217   4.551
31899SOL     OW97703   8.615   5.023   5.402
31899SOL    HW197704   8.605   5.064   5.488
31899SOL    HW297705   8.526   4.987   5.387
31900SOL     OW97706   8.070   4.690   3.852
31900SOL    HW197707   8.110   4.762   3.802
31900SOL    HW297708   8.021   4.737   3.923
31901SOL     OW97709   9.056   3.824   5.215
31901SOL    HW197710   9.051   3.895   5.150
31901SOL    HW297711   9.059   3.874   5.298
31902SOL     OW97712   9.296   5.466   4.068
31902SOL    HW197713   9.359   5.447   4.141
31902SOL    HW297714   9.312   5.560   4.053
31903SOL     OW97715   9.165   4.662   4.333
31903SOL    HW197716   9.227   4.613   4.276
31903SOL    HW297717   9.117   4.716   4.268
31904SOL     OW97718   9.093   4.855   4.148
31904SOL    HW197719   9.186   4.854   4.120
31904SOL    HW297720   9.097   4.916   4.225
31905SOL     OW97721   8.752   4.934   5.141
31905SOL    HW197722   8.802   4.853   5.127
31905SOL    HW297723   8.754   4.944   5.237
31906SOL     OW97724   8.266   3.720   4.216
31906SOL    HW197725   8.303   3.810   4.214
31906SOL    HW297726   8.174   3.736   4.244
31907SOL     OW97727   8.989   4.685   3.896
31907SOL    HW197728   8.910   4.644   3.937
31907SOL    HW297729   9.035   4.721   3.973
31908SOL     OW97730   8.632   5.544   5.348
31908SOL    HW197731   8.634   5.606   5.274
31908SOL    HW297732   8.645   5.459   5.304
31909SOL     OW97733   8.932   5.142   4.684
31909SOL    HW197734   8.862   5.130   4.750
31909SOL    HW297735   8.913   5.064   4.628
31910SOL     OW97736   9.105   5.457   4.315
31910SOL    HW197737   9.082   5.410   4.233
31910SOL    HW297738   9.078   5.391   4.381
31911SOL     OW97739   8.037   4.452   3.979
31911SOL    HW197740   8.049   4.537   3.932
31911SOL    HW297741   7.987   4.482   4.056
31912SOL     OW97742   8.715   4.050   4.621
31912SOL    HW197743   8.617   4.035   4.634
31912SOL    HW297744   8.754   3.996   4.692
31913SOL     OW97745   9.020   5.373   4.025
31913SOL    HW197746   9.112   5.399   4.032
31913SOL    HW297747   9.012   5.361   3.928
31914SOL     OW97748   8.845   4.203   5.401
31914SOL    HW197749   8.837   4.251   5.486
31914SOL    HW297750   8.902   4.128   5.425
31915SOL     OW97751   8.413   4.604   5.300
31915SOL    HW197752   8.458   4.523   5.267
31915SOL    HW297753   8.392   4.651   5.219
31916SOL     OW97754   8.462   4.166   5.001
31916SOL    HW197755   8.382   4.213   5.026
31916SOL    HW297756   8.430   4.114   4.925
31917SOL     OW97757   8.518   4.403   4.118
31917SOL    HW197758   8.517   4.430   4.211
31917SOL    HW297759   8.428   4.368   4.105
31918SOL     OW97760   8.299   4.097   3.869
31918SOL    HW197761   8.391   4.129   3.860
31918SOL    HW297762   8.313   4.002   3.880
31919SOL     OW97763   9.164   4.323   5.559
31919SOL    HW197764   9.126   4.400   5.512
31919SOL    HW297765   9.184   4.264   5.484
31920SOL     OW97766   8.819   4.861   4.279
31920SOL    HW197767   8.894   4.870   4.219
31920SOL    HW297768   8.757   4.928   4.245
31921SOL     OW97769   7.969   3.892   4.597
31921SOL    HW197770   7.927   3.947   4.664
31921SOL    HW297771   8.058   3.935   4.586
31922SOL     OW97772   8.439   5.174   4.205
31922SOL    HW197773   8.398   5.243   4.148
31922SOL    HW297774   8.426   5.210   4.293
31923SOL     OW97775   9.239   4.776   4.579
31923SOL    HW197776   9.190   4.753   4.498
31923SOL    HW297777   9.168   4.779   4.645
31924SOL     OW97778   8.665   5.289   5.217
31924SOL    HW197779   8.653   5.218   5.282
31924SOL    HW297780   8.573   5.311   5.196
31925SOL     OW97781   8.940   4.468   4.437
31925SOL    HW197782   8.915   4.442   4.527
31925SOL    HW297783   9.014   4.528   4.452
31926SOL     OW97784   8.539   5.506   3.960
31926SOL    HW197785   8.472   5.458   4.013
31926SOL    HW297786   8.551   5.445   3.886
31927SOL     OW97787   9.062   5.093   3.819
31927SOL    HW197788   9.031   5.180   3.788
31927SOL    HW297789   8.991   5.033   3.790
31928SOL     OW97790   8.849   3.816   4.155
31928SOL    HW197791   8.858   3.771   4.071
31928SOL    HW297792   8.941   3.842   4.175
31929SOL     OW97793   8.997   3.982   5.453
31929SOL    HW197794   8.993   3.979   5.552
31929SOL    HW297795   8.927   3.919   5.429
31930SOL     OW97796   8.086   3.857   3.816
31930SOL    HW197797   8.154   3.793   3.840
31930SOL    HW297798   8.032   3.805   3.753
31931SOL     OW97799   8.252   3.987   5.529
31931SOL    HW197800   8.317   3.920   5.499
31931SOL    HW297801   8.185   3.984   5.459
31932SOL     OW97802   8.776   4.297   5.156
31932SOL    HW197803   8.814   4.281   5.244
31932SOL    HW297804   8.814   4.383   5.131
31933SOL     OW97805   8.259   5.082   4.605
31933SOL    HW197806   8.350   5.094   4.571
31933SOL    HW297807   8.218   5.166   4.584
31934SOL     OW97808   7.998   3.770   4.237
31934SOL    HW197809   7.923   3.786   4.297
31934SOL    HW297810   7.990   3.845   4.175
31935SOL     OW97811   8.873   4.910   3.760
31935SOL    HW197812   8.904   4.833   3.812
31935SOL    HW297813   8.789   4.933   3.803
31936SOL     OW97814   7.748   3.757   3.903
31936SOL    HW197815   7.793   3.842   3.913
31936SOL    HW297816   7.807   3.696   3.950
31937SOL     OW97817   8.384   3.963   4.207
31937SOL    HW197818   8.383   4.045   4.157
31937SOL    HW297819   8.469   3.970   4.254
31938SOL     OW97820   8.527   4.387   5.202
31938SOL    HW197821   8.478   4.305   5.191
31938SOL    HW297822   8.617   4.360   5.178
31939SOL     OW97823   8.740   5.325   4.466
31939SOL    HW197824   8.709   5.393   4.405
31939SOL    HW297825   8.724   5.360   4.553
31940SOL     OW97826   8.690   5.553   4.305
31940SOL    HW197827   8.738   5.621   4.255
31940SOL    HW297828   8.667   5.601   4.386
31941SOL     OW97829   8.495   4.277   3.766
31941SOL    HW197830   8.465   4.364   3.736
31941SOL    HW297831   8.574   4.298   3.818
31942SOL     OW97832   8.503   3.750   4.460
31942SOL    HW197833   8.414   3.760   4.423
31942SOL    HW297834   8.485   3.717   4.549
31943SOL     OW97835   8.884   4.868   4.571
31943SOL    HW197836   8.836   4.790   4.607
31943SOL    HW297837   8.853   4.868   4.479
31944SOL     OW97838   8.946   4.281   4.681
31944SOL    HW197839   8.879   4.218   4.713
31944SOL    HW297840   8.975   4.325   4.763
31945SOL     OW97841   9.298   4.537   4.123
31945SOL    HW197842   9.355   4.479   4.178
31945SOL    HW297843   9.286   4.480   4.044
31946SOL     OW97844   9.133   5.008   4.362
31946SOL    HW197845   9.227   5.020   4.383
31946SOL    HW297846   9.090   5.090   4.391
31947SOL     OW97847   8.859   4.310   3.772
31947SOL    HW197848   8.815   4.280   3.855
31947SOL    HW297849   8.952   4.300   3.794
31948SOL     OW97850   7.986   3.958   4.044
31948SOL    HW197851   8.026   3.938   3.957
31948SOL    HW297852   7.949   4.047   4.031
31949SOL     OW97853   9.181   4.962   5.287
31949SOL    HW197854   9.266   4.915   5.281
31949SOL    HW297855   9.211   5.052   5.310
31950SOL     OW97856   9.087   5.365   5.380
31950SOL    HW197857   9.068   5.390   5.288
31950SOL    HW297858   9.151   5.293   5.369
31951SOL     OW97859   9.055   4.821   4.805
31951SOL    HW197860   9.061   4.892   4.872
31951SOL    HW297861   8.989   4.857   4.744
31952SOL     OW97862   8.390   3.795   5.140
31952SOL    HW197863   8.404   3.775   5.044
31952SOL    HW297864   8.456   3.863   5.157
31953SOL     OW97865   8.727   4.095   4.979
31953SOL    HW197866   8.751   4.169   5.039
31953SOL    HW297867   8.634   4.118   4.960
31954SOL     OW97868   7.976   4.241   4.523
31954SOL    HW197869   7.926   4.322   4.538
31954SOL    HW297870   8.017   4.222   4.608
31955SOL     OW97871   8.653   5.052   4.116
31955SOL    HW197872   8.706   5.126   4.148
31955SOL    HW297873   8.565   5.075   4.154
31956SOL     OW97874   9.045   4.347   4.208
31956SOL    HW197875   8.998   4.390   4.282
31956SOL    HW297876   9.064   4.423   4.151
31957SOL     OW97877   7.920   4.462   5.390
31957SOL    HW197878   7.842   4.478   5.333
31957SOL    HW297879   7.947   4.373   5.361
31958SOL     OW97880   9.072   4.520   5.410
31958SOL    HW197881   8.982   4.556   5.399
31958SOL    HW297882   9.117   4.557   5.331
31959SOL     OW97883   8.443   3.815   5.474
31959SOL    HW197884   8.492   3.889   5.436
31959SOL    HW297885   8.493   3.739   5.441
31960SOL     OW97886   8.691   4.233   3.984
31960SOL    HW197887   8.699   4.164   4.053
31960SOL    HW297888   8.632   4.295   4.031
31961SOL     OW97889   9.222   4.679   5.573
31961SOL    HW197890   9.170   4.638   5.502
31961SOL    HW297891   9.160   4.679   5.647
31962SOL     OW97892   7.756   3.796   4.344
31962SOL    HW197893   7.726   3.887   4.365
31962SOL    HW297894   7.749   3.752   4.431
31963SOL     OW97895   9.026   4.105   4.095
31963SOL    HW197896   9.070   4.042   4.154
31963SOL    HW297897   9.030   4.189   4.144
31964SOL     OW97898   8.453   5.306   5.432
31964SOL    HW197899   8.422   5.383   5.380
31964SOL    HW297900   8.402   5.237   5.383
31965SOL     OW97901   9.298   5.208   5.326
31965SOL    HW197902   9.319   5.235   5.235
31965SOL    HW297903   9.376   5.240   5.375
31966SOL     OW97904   7.789   4.590   5.586
31966SOL    HW197905   7.861   4.653   5.583
31966SOL    HW297906   7.815   4.532   5.511
31967SOL     OW97907   8.971   3.983   3.853
31967SOL    HW197908   8.893   3.931   3.876
31967SOL    HW297909   8.996   4.025   3.937
31968SOL     OW97910   8.735   4.549   3.745
31968SOL    HW197911   8.793   4.471   3.753
31968SOL    HW297912   8.763   4.582   3.657
31969SOL     OW97913   8.593   4.098   5.400
31969SOL    HW197914   8.536   4.155   5.456
31969SOL    HW297915   8.676   4.149   5.398
31970SOL     OW97916   8.639   3.917   5.215
31970SOL    HW197917   8.623   3.989   5.279
31970SOL    HW297918   8.660   3.964   5.134
31971SOL     OW97919   8.833   4.645   5.376
31971SOL    HW197920   8.857   4.740   5.371
31971SOL    HW297921   8.816   4.623   5.283
31972SOL     OW97922   8.275   4.318   4.034
31972SOL    HW197923   8.253   4.224   4.035
31972SOL    HW297924   8.193   4.361   4.065
31973SOL     OW97925   9.084   4.345   4.926
31973SOL    HW197926   9.051   4.282   4.991
31973SOL    HW297927   9.160   4.298   4.887
31974SOL     OW97928   8.395   5.411   5.187
31974SOL    HW197929   8.314   5.369   5.156
31974SOL    HW297930   8.377   5.507   5.179
31975SOL     OW97931   7.915   4.235   3.877
31975SOL    HW197932   7.952   4.307   3.930
31975SOL    HW297933   7.823   4.267   3.866
31976SOL     OW97934   8.777   4.570   4.023
31976SOL    HW197935   8.712   4.531   4.083
31976SOL    HW297936   8.731   4.573   3.937
31977SOL     OW97937   9.210   5.476   4.860
31977SOL    HW197938   9.279   5.496   4.793
31977SOL    HW297939   9.199   5.379   4.846
31978SOL     OW97940   8.729   5.459   4.804
31978SOL    HW197941   8.817   5.456   4.762
31978SOL    HW297942   8.732   5.391   4.871
31979SOL     OW97943   9.127   3.861   4.224
31979SOL    HW197944   9.203   3.844   4.167
31979SOL    HW297945   9.122   3.779   4.278
31980SOL     OW97946   8.805   5.314   4.190
31980SOL    HW197947   8.868   5.340   4.120
31980SOL    HW297948   8.762   5.397   4.214
31981SOL     OW97949   7.538   5.557   5.594
31981SOL    HW197950   7.522   5.465   5.619
31981SOL    HW297951   7.611   5.581   5.652
31982SOL     OW97952   8.713   4.612   4.346
31982SOL    HW197953   8.790   4.573   4.390
31982SOL    HW297954   8.747   4.700   4.321
31983SOL     OW97955   8.146   5.348   3.864
31983SOL    HW197956   8.128   5.350   3.769
31983SOL    HW297957   8.062   5.314   3.899
31984SOL     OW97958   9.076   5.444   5.115
31984SOL    HW197959   9.120   5.460   5.030
31984SOL    HW297960   9.061   5.534   5.148
31985SOL     OW97961   9.282   3.883   4.696
31985SOL    HW197962   9.299   3.796   4.656
31985SOL    HW297963   9.195   3.908   4.658
31986SOL     OW97964   7.694   4.041   4.414
31986SOL    HW197965   7.604   4.072   4.394
31986SOL    HW297966   7.706   4.053   4.509
31987SOL     OW97967   8.638   5.351   3.748
31987SOL    HW197968   8.633   5.255   3.771
31987SOL    HW297969   8.572   5.358   3.677
31988SOL     OW97970   8.362   4.611   3.970
31988SOL    HW197971   8.432   4.672   3.943
31988SOL    HW297972   8.400   4.563   4.044
31989SOL     OW97973   9.003   5.354   3.749
31989SOL    HW197974   8.907   5.365   3.748
31989SOL    HW297975   9.024   5.347   3.653
31990SOL     OW97976   9.054   5.041   4.986
31990SOL    HW197977   9.067   5.006   5.076
31990SOL    HW297978   8.981   5.105   5.001
31991SOL     OW97979   8.556   4.822   4.440
31991SOL    HW197980   8.464   4.802   4.453
31991SOL    HW297981   8.593   4.737   4.408
31992SOL     OW97982   9.157   4.086   5.101
31992SOL    HW197983   9.217   4.162   5.097
31992SOL    HW297984   9.209   4.018   5.053
31993SOL     OW97985   7.546   4.038   3.710
31993SOL    HW197986   7.453   4.022   3.692
31993SOL    HW297987   7.539   4.088   3.795
31994SOL     OW97988   8.874   4.592   5.103
31994SOL    HW197989   8.804   4.589   5.032
31994SOL    HW297990   8.952   4.618   5.053
31995SOL     OW97991   7.492   3.864   4.033
31995SOL    HW197992   7.505   3.950   4.078
31995SOL    HW297993   7.567   3.862   3.972
31996SOL     OW97994   8.632   5.087   3.827
31996SOL    HW197995   8.546   5.042   3.826
31996SOL    HW297996   8.653   5.087   3.922
31997SOL     OW97997   8.967   5.493   4.679
31997SOL    HW197998   8.990   5.552   4.607
31997SOL    HW297999   9.049   5.486   4.729
31998SOL     OW98000   8.217   4.267   5.405
31998SOL    HW198001   8.216   4.338   5.471
31998SOL    HW298002   8.248   4.190   5.454
31999SOL     OW98003   8.916   4.899   5.362
31999SOL    HW198004   8.903   4.918   5.457
31999SOL    HW298005   9.004   4.937   5.345
32000SOL     OW98006   9.125   4.609   4.965
32000SOL    HW198007   9.106   4.517   4.936
32000SOL    HW298008   9.097   4.663   4.889
32001SOL     OW98009   8.663   4.055   4.193
32001SOL    HW198010   8.721   3.978   4.192
32001SOL    HW298011   8.695   4.103   4.273
32002SOL     OW98012   9.209   4.112   5.360
32002SOL    HW198013   9.173   4.115   5.269
32002SOL    HW298014   9.139   4.061   5.405
32003SOL     OW98015   9.190   4.664   5.222
32003SOL    HW198016   9.166   4.757   5.212
32003SOL    HW298017   9.186   4.633   5.130
32004SOL     OW98018   8.317   5.087   3.752
32004SOL    HW198019   8.291   5.092   3.847
32004SOL    HW298020   8.322   5.180   3.725
32005SOL     OW98021   8.562   4.737   3.822
32005SOL    HW198022   8.527   4.780   3.741
32005SOL    HW298023   8.620   4.668   3.785
32006SOL     OW98024   9.300   5.284   4.555
32006SOL    HW198025   9.211   5.264   4.523
32006SOL    HW298026   9.321   5.208   4.610
32007SOL     OW98027   7.712   5.017   5.545
32007SOL    HW198028   7.638   4.983   5.492
32007SOL    HW298029   7.672   5.035   5.630
32008SOL     OW98030   9.284   3.891   4.960
32008SOL    HW198031   9.274   3.795   4.963
32008SOL    HW298032   9.285   3.906   4.863
32009SOL     OW98033   7.889   4.146   4.239
32009SOL    HW198034   7.958   4.081   4.244
32009SOL    HW298035   7.830   4.119   4.311
32010SOL     OW98036   9.166   5.222   4.815
32010SOL    HW198037   9.083   5.208   4.766
32010SOL    HW298038   9.154   5.156   4.885
32011SOL     OW98039   8.279   5.328   4.403
32011SOL    HW198040   8.270   5.404   4.343
32011SOL    HW298041   8.188   5.293   4.401
32012SOL     OW98042   8.874   3.951   4.813
32012SOL    HW198043   8.894   3.868   4.858
32012SOL    HW298044   8.820   3.999   4.880
32013SOL     OW98045   8.457   3.719   4.893
32013SOL    HW198046   8.410   3.663   4.829
32013SOL    HW298047   8.549   3.684   4.885
32014SOL     OW98048   8.250   5.062   4.023
32014SOL    HW198049   8.172   5.030   4.071
32014SOL    HW298050   8.310   5.078   4.097
32015SOL     OW98051   8.184   5.304   4.996
32015SOL    HW198052   8.142   5.374   5.047
32015SOL    HW298053   8.166   5.331   4.905
32016SOL     OW98054   8.763   3.772   3.870
32016SOL    HW198055   8.776   3.688   3.825
32016SOL    HW298056   8.677   3.757   3.914
32017SOL     OW98057   8.738   4.205   4.413
32017SOL    HW198058   8.684   4.277   4.447
32017SOL    HW298059   8.735   4.142   4.489
32018SOL     OW98060   9.047   3.932   4.585
32018SOL    HW198061   8.974   3.942   4.647
32018SOL    HW298062   9.046   4.016   4.535
32019SOL     OW98063   8.334   5.372   4.056
32019SOL    HW198064   8.263   5.356   3.990
32019SOL    HW298065   8.294   5.440   4.114
32020SOL     OW98066   7.685   4.337   5.705
32020SOL    HW198067   7.590   4.348   5.710
32020SOL    HW298068   7.705   4.366   5.615
32021SOL     OW98069   7.674   4.009   6.591
32021SOL    HW198070   7.697   3.985   6.682
32021SOL    HW298071   7.587   3.965   6.580
32022SOL     OW98072   7.464   4.130   6.213
32022SOL    HW198073   7.380   4.147   6.258
32022SOL    HW298074   7.444   4.046   6.167
32023SOL     OW98075   8.019   5.015   6.784
32023SOL    HW198076   7.930   5.009   6.748
32023SOL    HW298077   8.024   5.107   6.813
32024SOL     OW98078   8.983   5.259   6.300
32024SOL    HW198079   8.943   5.225   6.382
32024SOL    HW298080   8.910   5.258   6.234
32025SOL     OW98081   8.570   4.415   6.305
32025SOL    HW198082   8.604   4.499   6.270
32025SOL    HW298083   8.536   4.442   6.392
32026SOL     OW98084   9.223   4.338   5.818
32026SOL    HW198085   9.199   4.335   5.723
32026SOL    HW298086   9.165   4.271   5.855
32027SOL     OW98087   8.199   4.891   6.614
32027SOL    HW198088   8.132   4.931   6.673
32027SOL    HW298089   8.228   4.970   6.565
32028SOL     OW98090   8.331   4.473   7.386
32028SOL    HW198091   8.304   4.537   7.453
32028SOL    HW298092   8.355   4.529   7.309
32029SOL     OW98093   8.132   4.740   6.223
32029SOL    HW198094   8.194   4.726   6.297
32029SOL    HW298095   8.059   4.788   6.265
32030SOL     OW98096   8.137   4.879   7.387
32030SOL    HW198097   8.183   4.962   7.411
32030SOL    HW298098   8.048   4.911   7.360
32031SOL     OW98099   7.772   5.147   6.664
32031SOL    HW198100   7.694   5.109   6.619
32031SOL    HW298101   7.817   5.198   6.593
32032SOL     OW98102   8.919   5.219   6.964
32032SOL    HW198103   8.975   5.299   6.975
32032SOL    HW298104   8.847   5.238   7.027
32033SOL     OW98105   7.884   4.115   7.119
32033SOL    HW198106   7.958   4.054   7.102
32033SOL    HW298107   7.807   4.064   7.090
32034SOL     OW98108   9.089   4.176   6.335
32034SOL    HW198109   9.024   4.206   6.270
32034SOL    HW298110   9.059   4.223   6.414
32035SOL     OW98111   7.686   5.415   6.080
32035SOL    HW198112   7.697   5.502   6.122
32035SOL    HW298113   7.743   5.426   6.001
32036SOL     OW98114   8.568   5.071   7.244
32036SOL    HW198115   8.611   5.075   7.330
32036SOL    HW298116   8.529   4.981   7.248
32037SOL     OW98117   7.702   5.142   6.100
32037SOL    HW198118   7.701   5.239   6.102
32037SOL    HW298119   7.636   5.119   6.167
32038SOL     OW98120   7.708   4.816   6.487
32038SOL    HW198121   7.711   4.740   6.547
32038SOL    HW298122   7.653   4.879   6.539
32039SOL     OW98123   8.053   5.512   7.003
32039SOL    HW198124   7.976   5.486   7.056
32039SOL    HW298125   8.070   5.603   7.032
32040SOL     OW98126   8.042   4.702   5.734
32040SOL    HW198127   8.060   4.771   5.666
32040SOL    HW298128   8.095   4.737   5.808
32041SOL     OW98129   9.045   3.835   7.061
32041SOL    HW198130   9.041   3.916   7.009
32041SOL    HW298131   9.046   3.870   7.151
32042SOL     OW98132   7.580   4.376   6.148
32042SOL    HW198133   7.540   4.288   6.166
32042SOL    HW298134   7.566   4.425   6.231
32043SOL     OW98135   9.293   5.470   5.938
32043SOL    HW198136   9.363   5.444   6.000
32043SOL    HW298137   9.320   5.561   5.917
32044SOL     OW98138   7.515   5.318   5.715
32044SOL    HW198139   7.483   5.227   5.726
32044SOL    HW298140   7.473   5.362   5.791
32045SOL     OW98141   9.137   4.618   6.225
32045SOL    HW198142   9.222   4.597   6.184
32045SOL    HW298143   9.103   4.687   6.165
32046SOL     OW98144   9.091   4.840   6.048
32046SOL    HW198145   9.175   4.849   6.002
32046SOL    HW298146   9.095   4.914   6.112
32047SOL     OW98147   7.557   4.462   7.163
32047SOL    HW198148   7.640   4.502   7.193
32047SOL    HW298149   7.495   4.537   7.172
32048SOL     OW98150   8.042   5.124   6.341
32048SOL    HW198151   8.001   5.035   6.347
32048SOL    HW298152   8.030   5.143   6.245
32049SOL     OW98153   8.730   4.947   7.001
32049SOL    HW198154   8.764   4.880   6.939
32049SOL    HW298155   8.788   4.935   7.079
32050SOL     OW98156   8.284   3.721   6.073
32050SOL    HW198157   8.312   3.814   6.073
32050SOL    HW298158   8.187   3.729   6.082
32051SOL     OW98159   7.620   4.705   6.839
32051SOL    HW198160   7.709   4.668   6.828
32051SOL    HW298161   7.564   4.642   6.793
32052SOL     OW98162   8.991   4.702   5.796
32052SOL    HW198163   8.914   4.650   5.825
32052SOL    HW298164   9.024   4.736   5.881
32053SOL     OW98165   8.619   5.525   7.198
32053SOL    HW198166   8.622   5.592   7.128
32053SOL    HW298167   8.647   5.445   7.152
32054SOL     OW98168   7.777   3.963   7.375
32054SOL    HW198169   7.845   4.030   7.389
32054SOL    HW298170   7.700   4.004   7.418
32055SOL     OW98171   8.915   5.150   6.546
32055SOL    HW198172   8.855   5.170   6.621
32055SOL    HW298173   8.885   5.061   6.519
32056SOL     OW98174   9.115   5.457   6.188
32056SOL    HW198175   9.097   5.423   6.099
32056SOL    HW298176   9.074   5.387   6.243
32057SOL     OW98177   8.025   4.449   5.836
32057SOL    HW198178   8.040   4.531   5.785
32057SOL    HW298179   7.960   4.477   5.903
32058SOL     OW98180   8.713   4.049   6.490
32058SOL    HW198181   8.624   4.019   6.517
32058SOL    HW298182   8.769   4.017   6.564
32059SOL     OW98183   9.024   5.385   5.909
32059SOL    HW198184   9.119   5.406   5.908
32059SOL    HW298185   9.008   5.369   5.815
32060SOL     OW98186   8.253   4.341   7.047
32060SOL    HW198187   8.229   4.307   7.137
32060SOL    HW298188   8.197   4.286   6.990
32061SOL     OW98189   8.846   4.205   7.249
32061SOL    HW198190   8.849   4.263   7.327
32061SOL    HW298191   8.905   4.131   7.274
32062SOL     OW98192   8.412   4.611   7.167
32062SOL    HW198193   8.450   4.529   7.130
32062SOL    HW298194   8.368   4.649   7.088
32063SOL     OW98195   8.435   4.125   6.826
32063SOL    HW198196   8.345   4.143   6.856
32063SOL    HW298197   8.421   4.065   6.752
32064SOL     OW98198   8.481   4.395   5.991
32064SOL    HW198199   8.487   4.423   6.084
32064SOL    HW298200   8.394   4.350   5.990
32065SOL     OW98201   7.558   4.530   6.366
32065SOL    HW198202   7.615   4.542   6.444
32065SOL    HW298203   7.499   4.606   6.370
32066SOL     OW98204   7.555   5.566   7.153
32066SOL    HW198205   7.569   5.547   7.249
32066SOL    HW298206   7.460   5.557   7.144
32067SOL     OW98207   8.329   4.074   5.810
32067SOL    HW198208   8.370   4.133   5.745
32067SOL    HW298209   8.299   4.004   5.751
32068SOL     OW98210   9.162   4.307   7.428
32068SOL    HW198211   9.126   4.387   7.384
32068SOL    HW298212   9.190   4.255   7.351
32069SOL     OW98213   8.806   4.872   6.150
32069SOL    HW198214   8.886   4.862   6.097
32069SOL    HW298215   8.759   4.941   6.101
32070SOL     OW98216   8.002   3.919   6.486
32070SOL    HW198217   8.008   3.935   6.582
32070SOL    HW298218   7.995   4.007   6.448
32071SOL     OW98219   8.440   5.159   6.074
32071SOL    HW198220   8.398   5.220   6.011
32071SOL    HW298221   8.450   5.215   6.152
32072SOL     OW98222   7.792   5.533   6.433
32072SOL    HW198223   7.837   5.446   6.438
32072SOL    HW298224   7.861   5.592   6.467
32073SOL     OW98225   9.260   4.754   6.453
32073SOL    HW198226   9.202   4.743   6.377
32073SOL    HW298227   9.199   4.751   6.528
32074SOL     OW98228   8.676   5.283   7.078
32074SOL    HW198229   8.651   5.216   7.145
32074SOL    HW298230   8.628   5.251   7.001
32075SOL     OW98231   7.776   4.676   5.853
32075SOL    HW198232   7.862   4.694   5.811
32075SOL    HW298233   7.737   4.616   5.786
32076SOL     OW98234   8.918   4.474   6.288
32076SOL    HW198235   8.916   4.448   6.381
32076SOL    HW298236   9.002   4.525   6.282
32077SOL     OW98237   7.904   4.998   7.309
32077SOL    HW198238   7.863   5.002   7.219
32077SOL    HW298239   7.825   5.002   7.365
32078SOL     OW98240   8.539   5.480   5.819
32078SOL    HW198241   8.468   5.434   5.866
32078SOL    HW298242   8.548   5.429   5.737
32079SOL     OW98243   7.618   4.016   7.081
32079SOL    HW198244   7.545   4.077   7.100
32079SOL    HW298245   7.604   3.945   7.145
32080SOL     OW98246   9.072   5.090   5.674
32080SOL    HW198247   9.030   5.174   5.648
32080SOL    HW298248   9.008   5.024   5.642
32081SOL     OW98249   7.895   5.453   5.912
32081SOL    HW198250   7.951   5.506   5.972
32081SOL    HW298251   7.959   5.417   5.848
32082SOL     OW98252   8.855   3.839   6.024
32082SOL    HW198253   8.824   3.806   5.937
32082SOL    HW298254   8.950   3.832   6.014
32083SOL     OW98255   7.692   5.524   6.810
32083SOL    HW198256   7.743   5.451   6.847
32083SOL    HW298257   7.677   5.496   6.718
32084SOL     OW98258   8.402   5.429   6.466
32084SOL    HW198259   8.485   5.381   6.477
32084SOL    HW298260   8.357   5.376   6.398
32085SOL     OW98261   7.854   4.399   6.094
32085SOL    HW198262   7.864   4.301   6.098
32085SOL    HW298263   7.757   4.407   6.104
32086SOL     OW98264   8.986   3.974   7.309
32086SOL    HW198265   8.989   3.982   7.407
32086SOL    HW298266   8.932   3.894   7.301
32087SOL     OW98267   8.057   3.840   5.676
32087SOL    HW198268   8.151   3.853   5.660
32087SOL    HW298269   8.026   3.811   5.589
32088SOL     OW98270   8.218   3.981   7.322
32088SOL    HW198271   8.299   3.929   7.335
32088SOL    HW298272   8.165   3.956   7.400
32089SOL     OW98273   8.343   5.268   6.786
32089SOL    HW198274   8.332   5.239   6.694
32089SOL    HW298275   8.404   5.202   6.824
32090SOL     OW98276   8.787   4.322   7.011
32090SOL    HW198277   8.824   4.286   7.095
32090SOL    HW298278   8.834   4.407   7.001
32091SOL     OW98279   8.259   5.144   6.518
32091SOL    HW198280   8.346   5.129   6.476
32091SOL    HW298281   8.199   5.149   6.442
32092SOL     OW98282   8.404   4.236   6.503
32092SOL    HW198283   8.380   4.228   6.408
32092SOL    HW298284   8.425   4.144   6.525
32093SOL     OW98285   8.013   3.758   6.093
32093SOL    HW198286   7.936   3.770   6.152
32093SOL    HW298287   8.005   3.836   6.035
32094SOL     OW98288   8.890   4.903   5.623
32094SOL    HW198289   8.913   4.829   5.682
32094SOL    HW298290   8.801   4.928   5.652
32095SOL     OW98291   7.730   3.771   5.776
32095SOL    HW198292   7.794   3.841   5.756
32095SOL    HW298293   7.789   3.700   5.808
32096SOL     OW98294   8.381   3.977   6.085
32096SOL    HW198295   8.362   4.013   5.996
32096SOL    HW298296   8.477   3.992   6.090
32097SOL     OW98297   8.530   4.397   7.057
32097SOL    HW198298   8.471   4.320   7.054
32097SOL    HW298299   8.619   4.360   7.053
32098SOL     OW98300   8.675   5.303   6.373
32098SOL    HW198301   8.680   5.368   6.300
32098SOL    HW298302   8.752   5.327   6.426
32099SOL     OW98303   7.910   4.878   6.316
32099SOL    HW198304   7.840   4.851   6.379
32099SOL    HW298305   7.866   4.859   6.230
32100SOL     OW98306   8.708   5.529   6.188
32100SOL    HW198307   8.766   5.584   6.130
32100SOL    HW298308   8.672   5.596   6.247
32101SOL     OW98309   8.491   4.283   5.571
32101SOL    HW198310   8.432   4.359   5.553
32101SOL    HW298311   8.543   4.315   5.645
32102SOL     OW98312   7.510   4.276   6.981
32102SOL    HW198313   7.604   4.266   6.958
32102SOL    HW298314   7.513   4.356   7.039
32103SOL     OW98315   8.022   3.945   6.757
32103SOL    HW198316   8.054   3.862   6.794
32103SOL    HW298317   7.929   3.945   6.786
32104SOL     OW98318   8.337   4.181   6.254
32104SOL    HW198319   8.290   4.234   6.189
32104SOL    HW298320   8.350   4.098   6.206
32105SOL     OW98321   8.479   3.789   6.344
32105SOL    HW198322   8.425   3.775   6.265
32105SOL    HW298323   8.455   3.711   6.399
32106SOL     OW98324   8.859   4.895   6.471
32106SOL    HW198325   8.790   4.832   6.492
32106SOL    HW298326   8.860   4.894   6.374
32107SOL     OW98327   8.953   4.287   6.555
32107SOL    HW198328   8.890   4.216   6.578
32107SOL    HW298329   9.002   4.302   6.638
32108SOL     OW98330   9.288   4.548   5.977
32108SOL    HW198331   9.341   4.492   6.038
32108SOL    HW298332   9.270   4.484   5.906
32109SOL     OW98333   7.925   5.155   5.689
32109SOL    HW198334   7.856   5.148   5.757
32109SOL    HW298335   7.886   5.100   5.620
32110SOL     OW98336   9.123   5.022   6.256
32110SOL    HW198337   9.221   5.027   6.257
32110SOL    HW298338   9.092   5.113   6.271
32111SOL     OW98339   8.840   4.322   5.646
32111SOL    HW198340   8.789   4.297   5.726
32111SOL    HW298341   8.928   4.288   5.667
32112SOL     OW98342   7.982   3.954   5.905
32112SOL    HW198343   8.014   3.913   5.821
32112SOL    HW298344   7.957   4.043   5.873
32113SOL     OW98345   9.177   4.956   7.162
32113SOL    HW198346   9.265   4.916   7.164
32113SOL    HW298347   9.200   5.050   7.174
32114SOL     OW98348   8.514   5.089   6.920
32114SOL    HW198349   8.437   5.055   6.969
32114SOL    HW298350   8.586   5.036   6.960
32115SOL     OW98351   9.064   5.331   7.221
32115SOL    HW198352   9.065   5.367   7.131
32115SOL    HW298353   9.144   5.275   7.221
32116SOL     OW98354   8.567   4.948   6.677
32116SOL    HW198355   8.504   4.979   6.743
32116SOL    HW298356   8.535   4.992   6.596
32117SOL     OW98357   9.052   4.814   6.660
32117SOL    HW198358   9.061   4.882   6.729
32117SOL    HW298359   8.998   4.861   6.595
32118SOL     OW98360   8.366   3.840   6.972
32118SOL    HW198361   8.398   3.803   6.887
32118SOL    HW298362   8.448   3.872   7.012
32119SOL     OW98363   8.449   4.836   7.330
32119SOL    HW198364   8.359   4.868   7.346
32119SOL    HW298365   8.436   4.761   7.269
32120SOL     OW98366   8.200   4.805   5.955
32120SOL    HW198367   8.179   4.780   6.047
32120SOL    HW298368   8.268   4.738   5.930
32121SOL     OW98369   7.861   4.540   6.851
32121SOL    HW198370   7.935   4.534   6.915
32121SOL    HW298371   7.816   4.456   6.863
32122SOL     OW98372   8.730   4.115   6.849
32122SOL    HW198373   8.751   4.194   6.904
32122SOL    HW298374   8.638   4.131   6.823
32123SOL     OW98375   7.524   5.296   6.932
32123SOL    HW198376   7.521   5.389   6.906
32123SOL    HW298377   7.619   5.275   6.922
32124SOL     OW98378   7.793   4.839   6.080
32124SOL    HW198379   7.808   4.906   6.011
32124SOL    HW298380   7.784   4.759   6.025
32125SOL     OW98381   7.986   4.271   6.434
32125SOL    HW198382   8.014   4.333   6.363
32125SOL    HW298383   8.058   4.279   6.497
32126SOL     OW98384   8.685   5.064   5.986
32126SOL    HW198385   8.726   5.146   6.018
32126SOL    HW298386   8.593   5.074   6.017
32127SOL     OW98387   8.745   5.193   6.754
32127SOL    HW198388   8.803   5.183   6.832
32127SOL    HW298389   8.677   5.126   6.770
32128SOL     OW98390   9.036   4.344   6.058
32128SOL    HW198391   8.981   4.391   6.124
32128SOL    HW298392   9.061   4.417   6.000
32129SOL     OW98393   7.784   5.240   6.906
32129SOL    HW198394   7.778   5.203   6.815
32129SOL    HW298395   7.879   5.263   6.909
32130SOL     OW98396   7.891   4.447   7.218
32130SOL    HW198397   7.944   4.495   7.151
32130SOL    HW298398   7.923   4.356   7.206
32131SOL     OW98399   9.073   4.502   7.276
32131SOL    HW198400   8.983   4.540   7.277
32131SOL    HW298401   9.112   4.550   7.199
32132SOL     OW98402   8.441   3.836   7.347
32132SOL    HW198403   8.499   3.909   7.322
32132SOL    HW298404   8.493   3.761   7.314
32133SOL     OW98405   7.940   3.747   7.340
32133SOL    HW198406   7.901   3.686   7.275
32133SOL    HW298407   7.874   3.818   7.342
32134SOL     OW98408   8.025   4.607   6.630
32134SOL    HW198409   8.054   4.699   6.636
32134SOL    HW298410   7.969   4.595   6.709
32135SOL     OW98411   8.807   4.576   6.603
32135SOL    HW198412   8.721   4.546   6.573
32135SOL    HW298413   8.853   4.492   6.617
32136SOL     OW98414   8.684   4.241   5.859
32136SOL    HW198415   8.676   4.158   5.908
32136SOL    HW298416   8.628   4.299   5.914
32137SOL     OW98417   7.748   3.932   6.837
32137SOL    HW198418   7.701   3.958   6.919
32137SOL    HW298419   7.727   3.836   6.832
32138SOL     OW98420   7.481   5.028   6.861
32138SOL    HW198421   7.503   4.972   6.937
32138SOL    HW298422   7.488   5.118   6.896
32139SOL     OW98423   8.179   4.372   6.643
32139SOL    HW198424   8.257   4.361   6.585
32139SOL    HW298425   8.142   4.459   6.619
32140SOL     OW98426   9.215   4.680   7.430
32140SOL    HW198427   9.168   4.617   7.374
32140SOL    HW298428   9.150   4.693   7.501
32141SOL     OW98429   7.767   3.781   6.211
32141SOL    HW198430   7.732   3.868   6.234
32141SOL    HW298431   7.761   3.734   6.296
32142SOL     OW98432   9.043   4.102   5.941
32142SOL    HW198433   9.068   4.043   6.012
32142SOL    HW298434   9.034   4.188   5.989
32143SOL     OW98435   8.505   4.475   6.563
32143SOL    HW198436   8.483   4.489   6.658
32143SOL    HW298437   8.476   4.382   6.551
32144SOL     OW98438   8.424   5.290   7.288
32144SOL    HW198439   8.417   5.342   7.204
32144SOL    HW298440   8.458   5.204   7.256
32145SOL     OW98441   9.302   5.209   7.185
32145SOL    HW198442   9.324   5.240   7.095
32145SOL    HW298443   9.382   5.234   7.234
32146SOL     OW98444   7.797   4.623   7.385
32146SOL    HW198445   7.877   4.648   7.433
32146SOL    HW298446   7.828   4.546   7.332
32147SOL     OW98447   8.963   3.980   5.715
32147SOL    HW198448   8.887   3.926   5.743
32147SOL    HW298449   8.989   4.026   5.797
32148SOL     OW98450   8.742   4.568   5.618
32148SOL    HW198451   8.780   4.478   5.622
32148SOL    HW298452   8.769   4.595   5.528
32149SOL     OW98453   8.509   5.088   6.432
32149SOL    HW198454   8.518   5.009   6.374
32149SOL    HW298455   8.577   5.149   6.399
32150SOL     OW98456   7.723   4.544   6.589
32150SOL    HW198457   7.812   4.557   6.553
32150SOL    HW298458   7.726   4.449   6.612
32151SOL     OW98459   7.770   4.271   6.592
32151SOL    HW198460   7.741   4.179   6.579
32151SOL    HW298461   7.839   4.278   6.522
32152SOL     OW98462   8.600   4.092   7.278
32152SOL    HW198463   8.556   4.145   7.347
32152SOL    HW298464   8.687   4.136   7.274
32153SOL     OW98465   8.612   3.924   7.064
32153SOL    HW198466   8.610   3.986   7.140
32153SOL    HW298467   8.657   3.977   6.998
32154SOL     OW98468   7.424   5.060   5.786
32154SOL    HW198469   7.333   5.057   5.753
32154SOL    HW298470   7.441   4.966   5.810
32155SOL     OW98471   7.538   5.505   6.532
32155SOL    HW198472   7.510   5.423   6.484
32155SOL    HW298473   7.624   5.523   6.489
32156SOL     OW98474   7.927   5.299   6.499
32156SOL    HW198475   7.998   5.364   6.515
32156SOL    HW298476   7.971   5.232   6.443
32157SOL     OW98477   8.427   4.498   6.826
32157SOL    HW198478   8.477   4.461   6.903
32157SOL    HW298479   8.337   4.470   6.848
32158SOL     OW98480   7.470   4.240   6.697
32158SOL    HW198481   7.547   4.234   6.639
32158SOL    HW298482   7.510   4.252   6.784
32159SOL     OW98483   7.666   4.239   7.303
32159SOL    HW198484   7.724   4.196   7.239
32159SOL    HW298485   7.619   4.304   7.248
32160SOL     OW98486   8.835   4.642   7.242
32160SOL    HW198487   8.855   4.737   7.240
32160SOL    HW298488   8.830   4.620   7.147
32161SOL     OW98489   8.241   4.290   5.970
32161SOL    HW198490   8.252   4.213   5.912
32161SOL    HW298491   8.163   4.334   5.932
32162SOL     OW98492   9.090   4.344   6.782
32162SOL    HW198493   9.062   4.281   6.850
32162SOL    HW298494   9.175   4.306   6.752
32163SOL     OW98495   7.702   5.268   7.302
32163SOL    HW198496   7.685   5.330   7.374
32163SOL    HW298497   7.703   5.182   7.350
32164SOL     OW98498   8.116   4.210   6.855
32164SOL    HW198499   8.086   4.125   6.819
32164SOL    HW298500   8.129   4.265   6.775
32165SOL     OW98501   8.375   5.418   7.060
32165SOL    HW198502   8.361   5.383   6.971
32165SOL    HW298503   8.366   5.514   7.046
32166SOL     OW98504   7.909   4.192   5.799
32166SOL    HW198505   7.962   4.272   5.793
32166SOL    HW298506   7.820   4.229   5.781
32167SOL     OW98507   7.550   4.856   7.049
32167SOL    HW198508   7.564   4.798   7.127
32167SOL    HW298509   7.575   4.796   6.975
32168SOL     OW98510   8.772   4.763   6.807
32168SOL    HW198511   8.788   4.702   6.732
32168SOL    HW298512   8.704   4.822   6.770
32169SOL     OW98513   8.770   4.573   5.890
32169SOL    HW198514   8.686   4.547   5.930
32169SOL    HW298515   8.749   4.575   5.794
32170SOL     OW98516   9.194   5.472   6.711
32170SOL    HW198517   9.271   5.498   6.656
32170SOL    HW298518   9.190   5.375   6.693
32171SOL     OW98519   8.694   5.455   6.708
32171SOL    HW198520   8.783   5.476   6.676
32171SOL    HW298521   8.701   5.358   6.722
32172SOL     OW98522   7.537   4.989   6.604
32172SOL    HW198523   7.508   4.996   6.697
32172SOL    HW298524   7.469   4.929   6.567
32173SOL     OW98525   8.141   5.360   7.322
32173SOL    HW198526   8.104   5.446   7.298
32173SOL    HW298527   8.232   5.366   7.286
32174SOL     OW98528   9.231   3.844   6.138
32174SOL    HW198529   9.239   3.840   6.042
32174SOL    HW298530   9.190   3.759   6.162
32175SOL     OW98531   8.818   5.299   6.070
32175SOL    HW198532   8.881   5.322   5.999
32175SOL    HW298533   8.770   5.383   6.082
32176SOL     OW98534   7.601   5.523   7.414
32176SOL    HW198535   7.559   5.452   7.465
32176SOL    HW298536   7.649   5.570   7.484
32177SOL     OW98537   8.696   4.646   6.252
32177SOL    HW198538   8.776   4.593   6.266
32177SOL    HW298539   8.733   4.725   6.208
32178SOL     OW98540   8.258   4.982   7.010
32178SOL    HW198541   8.228   5.028   7.091
32178SOL    HW298542   8.186   5.002   6.949
32179SOL     OW98543   8.094   5.371   5.743
32179SOL    HW198544   8.136   5.386   5.657
32179SOL    HW298545   8.046   5.287   5.727
32180SOL     OW98546   9.073   5.437   6.970
32180SOL    HW198547   9.117   5.452   6.884
32180SOL    HW298548   9.058   5.528   7.002
32181SOL     OW98549   9.285   3.891   6.565
32181SOL    HW198550   9.298   3.799   6.536
32181SOL    HW298551   9.197   3.913   6.528
32182SOL     OW98552   7.706   4.039   6.307
32182SOL    HW198553   7.627   4.089   6.280
32182SOL    HW298554   7.704   4.045   6.403
32183SOL     OW98555   8.652   5.343   5.606
32183SOL    HW198556   8.656   5.249   5.632
32183SOL    HW298557   8.586   5.340   5.532
32184SOL     OW98558   8.267   4.720   6.963
32184SOL    HW198559   8.303   4.725   6.874
32184SOL    HW298560   8.264   4.814   6.990
32185SOL     OW98561   8.373   4.629   5.868
32185SOL    HW198562   8.434   4.659   5.797
32185SOL    HW298563   8.405   4.540   5.890
32186SOL     OW98564   8.981   5.344   5.626
32186SOL    HW198565   8.885   5.349   5.612
32186SOL    HW298566   9.017   5.362   5.536
32187SOL     OW98567   7.783   4.999   7.067
32187SOL    HW198568   7.775   5.073   7.005
32187SOL    HW298569   7.699   4.952   7.056
32188SOL     OW98570   9.058   5.034   6.847
32188SOL    HW198571   9.099   5.002   6.929
32188SOL    HW298572   8.998   5.103   6.882
32189SOL     OW98573   8.507   4.842   6.317
32189SOL    HW198574   8.430   4.790   6.347
32189SOL    HW298575   8.563   4.773   6.279
32190SOL     OW98576   8.474   3.947   6.570
32190SOL    HW198577   8.466   3.903   6.483
32190SOL    HW298578   8.472   3.869   6.630
32191SOL     OW98579   8.050   5.205   6.087
32191SOL    HW198580   8.110   5.161   6.023
32191SOL    HW298581   7.977   5.232   6.030
32192SOL     OW98582   9.156   4.097   6.963
32192SOL    HW198583   9.220   4.170   6.963
32192SOL    HW298584   9.204   4.028   6.913
32193SOL     OW98585   7.700   5.091   5.840
32193SOL    HW198586   7.604   5.093   5.825
32193SOL    HW298587   7.705   5.111   5.935
32194SOL     OW98588   7.576   4.729   7.285
32194SOL    HW198589   7.506   4.717   7.352
32194SOL    HW298590   7.657   4.698   7.332
32195SOL     OW98591   8.117   3.911   7.076
32195SOL    HW198592   8.204   3.882   7.041
32195SOL    HW298593   8.142   3.943   7.164
32196SOL     OW98594   8.900   4.582   6.977
32196SOL    HW198595   8.857   4.648   6.920
32196SOL    HW298596   8.993   4.602   6.963
32197SOL     OW98597   7.480   3.879   5.875
32197SOL    HW198598   7.431   3.896   5.791
32197SOL    HW298599   7.569   3.865   5.840
32198SOL     OW98600   8.637   5.083   5.706
32198SOL    HW198601   8.540   5.089   5.710
32198SOL    HW298602   8.662   5.077   5.800
32199SOL     OW98603   8.068   4.532   7.021
32199SOL    HW198604   8.124   4.611   7.012
32199SOL    HW298605   8.137   4.464   7.031
32200SOL     OW98606   8.949   5.490   6.549
32200SOL    HW198607   8.984   5.540   6.474
32200SOL    HW298608   9.029   5.475   6.602
32201SOL     OW98609   8.171   4.260   7.285
32201SOL    HW198610   8.213   4.323   7.346
32201SOL    HW298611   8.188   4.173   7.323
32202SOL     OW98612   8.908   4.908   7.211
32202SOL    HW198613   8.900   4.913   7.308
32202SOL    HW298614   9.002   4.928   7.197
32203SOL     OW98615   7.822   5.456   7.145
32203SOL    HW198616   7.738   5.503   7.130
32203SOL    HW298617   7.790   5.373   7.185
32204SOL     OW98618   9.157   4.607   6.828
32204SOL    HW198619   9.134   4.517   6.797
32204SOL    HW298620   9.115   4.664   6.761
32205SOL     OW98621   8.648   4.041   6.065
32205SOL    HW198622   8.721   3.977   6.062
32205SOL    HW298623   8.676   4.101   6.138
32206SOL     OW98624   8.059   4.466   6.254
32206SOL    HW198625   8.084   4.557   6.232
32206SOL    HW298626   7.989   4.447   6.188
32207SOL     OW98627   9.213   4.101   7.225
32207SOL    HW198628   9.181   4.109   7.134
32207SOL    HW298629   9.140   4.051   7.266
32208SOL     OW98630   9.184   4.666   7.091
32208SOL    HW198631   9.196   4.762   7.090
32208SOL    HW298632   9.194   4.643   6.997
32209SOL     OW98633   8.350   5.158   5.674
32209SOL    HW198634   8.266   5.113   5.688
32209SOL    HW298635   8.349   5.179   5.580
32210SOL     OW98636   8.085   5.526   6.505
32210SOL    HW198637   8.073   5.620   6.481
32210SOL    HW298638   8.181   5.516   6.505
32211SOL     OW98639   8.327   4.674   6.427
32211SOL    HW198640   8.373   4.599   6.468
32211SOL    HW298641   8.309   4.731   6.502
32212SOL     OW98642   8.532   4.722   5.669
32212SOL    HW198643   8.516   4.778   5.592
32212SOL    HW298644   8.605   4.665   5.640
32213SOL     OW98645   9.317   5.276   6.413
32213SOL    HW198646   9.223   5.281   6.393
32213SOL    HW298647   9.319   5.219   6.491
32214SOL     OW98648   7.686   5.042   7.452
32214SOL    HW198649   7.612   4.983   7.432
32214SOL    HW298650   7.679   5.049   7.549
32215SOL     OW98651   7.553   4.957   6.250
32215SOL    HW198652   7.583   4.909   6.328
32215SOL    HW298653   7.616   4.927   6.183
32216SOL     OW98654   8.123   5.121   7.197
32216SOL    HW198655   8.046   5.070   7.227
32216SOL    HW298656   8.113   5.203   7.249
32217SOL     OW98657   9.285   3.893   6.831
32217SOL    HW198658   9.268   3.798   6.833
32217SOL    HW298659   9.292   3.908   6.734
32218SOL     OW98660   7.888   4.132   6.115
32218SOL    HW198661   7.913   4.063   6.053
32218SOL    HW298662   7.837   4.087   6.184
32219SOL     OW98663   9.167   5.212   6.662
32219SOL    HW198664   9.082   5.191   6.621
32219SOL    HW298665   9.164   5.154   6.740
32220SOL     OW98666   7.773   4.258   6.875
32220SOL    HW198667   7.854   4.227   6.919
32220SOL    HW298668   7.790   4.236   6.782
32221SOL     OW98669   8.266   5.317   6.260
32221SOL    HW198670   8.271   5.343   6.167
32221SOL    HW298671   8.179   5.274   6.264
32222SOL     OW98672   8.876   3.973   6.682
32222SOL    HW198673   8.898   3.886   6.719
32222SOL    HW298674   8.832   4.018   6.756
32223SOL     OW98675   8.461   3.729   6.740
32223SOL    HW198676   8.404   3.654   6.718
32223SOL    HW298677   8.550   3.687   6.736
32224SOL     OW98678   8.209   5.074   5.918
32224SOL    HW198679   8.193   4.978   5.908
32224SOL    HW298680   8.303   5.075   5.941
32225SOL     OW98681   8.049   5.278   6.856
32225SOL    HW198682   8.055   5.362   6.906
32225SOL    HW298683   8.140   5.271   6.824
32226SOL     OW98684   8.767   3.767   5.774
32226SOL    HW198685   8.778   3.718   5.692
32226SOL    HW298686   8.684   3.726   5.808
32227SOL     OW98687   8.724   4.198   6.264
32227SOL    HW198688   8.667   4.277   6.276
32227SOL    HW298689   8.712   4.150   6.348
32228SOL     OW98690   9.052   3.928   6.454
32228SOL    HW198691   8.971   3.937   6.507
32228SOL    HW298692   9.055   4.013   6.406
32229SOL     OW98693   7.501   4.820   5.883
32229SOL    HW198694   7.590   4.801   5.852
32229SOL    HW298695   7.470   4.730   5.908
32230SOL     OW98696   8.323   5.366   5.933
32230SOL    HW198697   8.250   5.355   5.870
32230SOL    HW298698   8.307   5.455   5.972
32231SOL     OW98699   7.681   4.369   7.585
32231SOL    HW198700   7.590   4.355   7.614
32231SOL    HW298701   7.682   4.339   7.493
32232SOL     OW98702   7.662   4.017   8.451
32232SOL    HW198703   7.687   3.987   8.540
32232SOL    HW298704   7.579   3.967   8.437
32233SOL     OW98705   7.449   4.128   8.074
32233SOL    HW198706   7.370   4.152   8.127
32233SOL    HW298707   7.421   4.044   8.036
32234SOL     OW98708   8.017   5.009   8.648
32234SOL    HW198709   7.931   5.006   8.604
32234SOL    HW298710   8.024   5.103   8.674
32235SOL     OW98711   8.998   5.251   8.169
32235SOL    HW198712   8.963   5.221   8.256
32235SOL    HW298713   8.927   5.231   8.107
32236SOL     OW98714   8.572   4.410   8.154
32236SOL    HW198715   8.605   4.498   8.128
32236SOL    HW298716   8.543   4.426   8.245
32237SOL     OW98717   9.232   4.324   7.682
32237SOL    HW198718   9.201   4.322   7.588
32237SOL    HW298719   9.174   4.258   7.722
32238SOL     OW98720   8.214   4.895   8.496
32238SOL    HW198721   8.140   4.933   8.546
32238SOL    HW298722   8.235   4.968   8.436
32239SOL     OW98723   8.295   4.558   9.224
32239SOL    HW198724   8.311   4.550   9.320
32239SOL    HW298725   8.216   4.612   9.221
32240SOL     OW98726   8.134   4.756   8.109
32240SOL    HW198727   8.196   4.729   8.179
32240SOL    HW298728   8.067   4.808   8.158
32241SOL     OW98729   8.139   4.877   9.245
32241SOL    HW198730   8.178   4.960   9.277
32241SOL    HW298731   8.050   4.907   9.215
32242SOL     OW98732   7.778   5.147   8.513
32242SOL    HW198733   7.705   5.103   8.465
32242SOL    HW298734   7.819   5.205   8.447
32243SOL     OW98735   8.922   5.223   8.823
32243SOL    HW198736   8.970   5.308   8.833
32243SOL    HW298737   8.860   5.226   8.897
32244SOL     OW98738   7.888   4.125   8.969
32244SOL    HW198739   7.963   4.066   8.957
32244SOL    HW298740   7.811   4.067   8.956
32245SOL     OW98741   9.066   4.171   8.181
32245SOL    HW198742   9.003   4.204   8.115
32245SOL    HW298743   9.056   4.236   8.251
32246SOL     OW98744   7.666   5.438   7.922
32246SOL    HW198745   7.694   5.515   7.976
32246SOL    HW298746   7.728   5.444   7.847
32247SOL     OW98747   8.578   5.078   9.115
32247SOL    HW198748   8.622   5.076   9.201
32247SOL    HW298749   8.535   4.991   9.115
32248SOL     OW98750   7.695   5.155   7.980
32248SOL    HW198751   7.692   5.252   7.986
32248SOL    HW298752   7.622   5.128   8.038
32249SOL     OW98753   7.722   4.808   8.355
32249SOL    HW198754   7.708   4.734   8.415
32249SOL    HW298755   7.666   4.877   8.395
32250SOL     OW98756   8.059   5.503   8.863
32250SOL    HW198757   7.979   5.487   8.916
32250SOL    HW298758   8.082   5.594   8.887
32251SOL     OW98759   8.020   4.717   7.565
32251SOL    HW198760   8.068   4.764   7.493
32251SOL    HW298761   8.066   4.752   7.644
32252SOL     OW98762   9.059   3.825   8.944
32252SOL    HW198763   9.051   3.902   8.887
32252SOL    HW298764   9.075   3.864   9.031
32253SOL     OW98765   7.563   4.376   8.013
32253SOL    HW198766   7.529   4.285   8.026
32253SOL    HW298767   7.553   4.415   8.102
32254SOL     OW98768   9.293   5.451   7.800
32254SOL    HW198769   9.366   5.436   7.863
32254SOL    HW298770   9.310   5.543   7.773
32255SOL     OW98771   7.512   5.320   7.564
32255SOL    HW198772   7.499   5.226   7.585
32255SOL    HW298773   7.476   5.363   7.644
32256SOL     OW98774   9.126   4.630   8.100
32256SOL    HW198775   9.209   4.598   8.061
32256SOL    HW298776   9.096   4.692   8.032
32257SOL     OW98777   9.089   4.838   7.894
32257SOL    HW198778   9.178   4.836   7.856
32257SOL    HW298779   9.098   4.909   7.961
32258SOL     OW98780   7.564   4.463   9.032
32258SOL    HW198781   7.649   4.503   9.054
32258SOL    HW298782   7.503   4.536   9.048
32259SOL     OW98783   8.044   5.138   8.204
32259SOL    HW198784   8.002   5.049   8.215
32259SOL    HW298785   8.035   5.150   8.107
32260SOL     OW98786   8.735   4.952   8.873
32260SOL    HW198787   8.769   4.882   8.815
32260SOL    HW298788   8.796   4.945   8.950
32261SOL     OW98789   8.274   3.720   7.951
32261SOL    HW198790   8.306   3.812   7.941
32261SOL    HW298791   8.178   3.733   7.959
32262SOL     OW98792   7.622   4.701   8.701
32262SOL    HW198793   7.712   4.668   8.687
32262SOL    HW298794   7.567   4.631   8.663
32263SOL     OW98795   8.994   4.679   7.630
32263SOL    HW198796   8.912   4.638   7.662
32263SOL    HW298797   9.033   4.713   7.712
32264SOL     OW98798   8.622   5.530   9.061
32264SOL    HW198799   8.632   5.595   8.991
32264SOL    HW298800   8.647   5.447   9.016
32265SOL     OW98801   7.775   3.949   9.233
32265SOL    HW198802   7.820   4.027   9.269
32265SOL    HW298803   7.682   3.970   9.254
32266SOL     OW98804   8.916   5.143   8.407
32266SOL    HW198805   8.855   5.165   8.481
32266SOL    HW298806   8.884   5.055   8.380
32267SOL     OW98807   9.108   5.459   8.052
32267SOL    HW198808   9.104   5.420   7.963
32267SOL    HW298809   9.076   5.385   8.107
32268SOL     OW98810   8.036   4.441   7.703
32268SOL    HW198811   8.038   4.530   7.666
32268SOL    HW298812   7.964   4.446   7.769
32269SOL     OW98813   8.708   4.078   8.379
32269SOL    HW198814   8.621   4.037   8.395
32269SOL    HW298815   8.768   4.023   8.434
32270SOL     OW98816   9.024   5.367   7.754
32270SOL    HW198817   9.117   5.392   7.762
32270SOL    HW298818   9.016   5.361   7.657
32271SOL     OW98819   8.247   4.364   8.907
32271SOL    HW198820   8.230   4.321   8.995
32271SOL    HW298821   8.208   4.298   8.847
32272SOL     OW98822   8.840   4.203   9.123
32272SOL    HW198823   8.849   4.258   9.202
32272SOL    HW298824   8.900   4.128   9.143
32273SOL     OW98825   8.403   4.141   8.686
32273SOL    HW198826   8.308   4.151   8.702
32273SOL    HW298827   8.407   4.074   8.617
32274SOL     OW98828   8.490   4.408   7.859
32274SOL    HW198829   8.498   4.427   7.954
32274SOL    HW298830   8.405   4.359   7.854
32275SOL     OW98831   7.553   4.524   8.241
32275SOL    HW198832   7.622   4.533   8.308
32275SOL    HW298833   7.504   4.607   8.252
32276SOL     OW98834   7.551   5.563   9.014
32276SOL    HW198835   7.563   5.544   9.109
32276SOL    HW298836   7.455   5.558   9.004
32277SOL     OW98837   8.324   4.096   7.660
32277SOL    HW198838   8.365   4.152   7.592
32277SOL    HW298839   8.343   4.008   7.625
32278SOL     OW98840   9.171   4.314   9.285
32278SOL    HW198841   9.127   4.387   9.236
32278SOL    HW298842   9.196   4.257   9.211
32279SOL     OW98843   8.809   4.871   8.013
32279SOL    HW198844   8.887   4.863   7.956
32279SOL    HW298845   8.755   4.932   7.961
32280SOL     OW98846   7.996   3.929   8.342
32280SOL    HW198847   8.005   3.939   8.439
32280SOL    HW298848   7.988   4.020   8.312
32281SOL     OW98849   8.428   5.164   7.941
32281SOL    HW198850   8.388   5.225   7.876
32281SOL    HW298851   8.439   5.218   8.020
32282SOL     OW98852   7.791   5.545   8.305
32282SOL    HW198853   7.841   5.462   8.319
32282SOL    HW298854   7.860   5.612   8.318
32283SOL     OW98855   9.255   4.771   8.342
32283SOL    HW198856   9.206   4.759   8.259
32283SOL    HW298857   9.186   4.767   8.409
32284SOL     OW98858   8.668   5.280   8.948
32284SOL    HW198859   8.643   5.212   9.013
32284SOL    HW298860   8.630   5.244   8.867
32285SOL     OW98861   7.750   4.671   7.699
32285SOL    HW198862   7.834   4.688   7.656
32285SOL    HW298863   7.715   4.596   7.649
32286SOL     OW98864   8.922   4.474   8.165
32286SOL    HW198865   8.924   4.452   8.259
32286SOL    HW298866   9.000   4.531   8.156
32287SOL     OW98867   7.904   4.998   9.172
32287SOL    HW198868   7.861   5.008   9.084
32287SOL    HW298869   7.826   5.002   9.231
32288SOL     OW98870   8.531   5.504   7.694
32288SOL    HW198871   8.464   5.449   7.737
32288SOL    HW298872   8.546   5.456   7.610
32289SOL     OW98873   7.621   4.018   8.946
32289SOL    HW198874   7.542   4.072   8.964
32289SOL    HW298875   7.598   3.932   8.984
32290SOL     OW98876   9.073   5.086   7.538
32290SOL    HW198877   9.029   5.169   7.514
32290SOL    HW298878   9.012   5.019   7.502
32291SOL     OW98879   7.901   5.464   7.766
32291SOL    HW198880   7.950   5.512   7.835
32291SOL    HW298881   7.972   5.429   7.709
32292SOL     OW98882   8.847   3.843   7.886
32292SOL    HW198883   8.838   3.799   7.800
32292SOL    HW298884   8.943   3.854   7.895
32293SOL     OW98885   7.697   5.518   8.675
32293SOL    HW198886   7.747   5.443   8.710
32293SOL    HW298887   7.677   5.491   8.585
32294SOL     OW98888   8.407   5.426   8.330
32294SOL    HW198889   8.490   5.378   8.334
32294SOL    HW298890   8.358   5.375   8.262
32295SOL     OW98891   7.841   4.413   7.913
32295SOL    HW198892   7.865   4.320   7.933
32295SOL    HW298893   7.746   4.414   7.937
32296SOL     OW98894   8.988   3.985   9.178
32296SOL    HW198895   8.985   3.987   9.277
32296SOL    HW298896   8.928   3.912   9.159
32297SOL     OW98897   8.079   3.851   7.537
32297SOL    HW198898   8.141   3.784   7.566
32297SOL    HW298899   8.027   3.803   7.469
32298SOL     OW98900   8.215   3.995   9.170
32298SOL    HW198901   8.294   3.937   9.181
32298SOL    HW298902   8.164   3.973   9.249
32299SOL     OW98903   8.329   5.261   8.646
32299SOL    HW198904   8.322   5.239   8.552
32299SOL    HW298905   8.395   5.198   8.679
32300SOL     OW98906   8.791   4.320   8.872
32300SOL    HW198907   8.830   4.284   8.954
32300SOL    HW298908   8.844   4.400   8.857
32301SOL     OW98909   8.262   5.135   8.373
32301SOL    HW198910   8.348   5.121   8.328
32301SOL    HW298911   8.200   5.143   8.299
32302SOL     OW98912   8.382   4.251   8.350
32302SOL    HW198913   8.362   4.239   8.254
32302SOL    HW298914   8.410   4.161   8.373
32303SOL     OW98915   8.005   3.775   7.950
32303SOL    HW198916   7.927   3.781   8.008
32303SOL    HW298917   7.992   3.853   7.891
32304SOL     OW98918   8.894   4.895   7.471
32304SOL    HW198919   8.921   4.818   7.524
32304SOL    HW298920   8.806   4.917   7.506
32305SOL     OW98921   7.727   3.771   7.644
32305SOL    HW198922   7.788   3.840   7.616
32305SOL    HW298923   7.789   3.706   7.682
32306SOL     OW98924   8.379   3.972   7.936
32306SOL    HW198925   8.356   4.021   7.855
32306SOL    HW298926   8.475   3.987   7.939
32307SOL     OW98927   8.544   4.380   8.935
32307SOL    HW198928   8.512   4.289   8.946
32307SOL    HW298929   8.640   4.365   8.918
32308SOL     OW98930   8.670   5.314   8.241
32308SOL    HW198931   8.673   5.366   8.158
32308SOL    HW298932   8.754   5.337   8.283
32309SOL     OW98933   7.924   4.894   8.199
32309SOL    HW198934   7.848   4.860   8.250
32309SOL    HW298935   7.895   4.875   8.107
32310SOL     OW98936   8.700   5.533   8.047
32310SOL    HW198937   8.752   5.599   7.998
32310SOL    HW298938   8.659   5.587   8.116
32311SOL     OW98939   8.507   4.255   7.471
32311SOL    HW198940   8.458   4.338   7.453
32311SOL    HW298941   8.578   4.283   7.531
32312SOL     OW98942   7.512   4.275   8.847
32312SOL    HW198943   7.608   4.263   8.831
32312SOL    HW298944   7.513   4.354   8.906
32313SOL     OW98945   8.018   3.951   8.613
32313SOL    HW198946   8.061   3.876   8.656
32313SOL    HW298947   7.926   3.942   8.644
32314SOL     OW98948   8.325   4.182   8.102
32314SOL    HW198949   8.282   4.231   8.031
32314SOL    HW298950   8.345   4.097   8.060
32315SOL     OW98951   8.473   3.800   8.223
32315SOL    HW198952   8.425   3.784   8.140
32315SOL    HW298953   8.449   3.721   8.275
32316SOL     OW98954   8.864   4.894   8.328
32316SOL    HW198955   8.794   4.830   8.349
32316SOL    HW298956   8.863   4.892   8.231
32317SOL     OW98957   8.911   4.298   8.444
32317SOL    HW198958   8.852   4.222   8.454
32317SOL    HW298959   8.975   4.287   8.517
32318SOL     OW98960   9.292   4.537   7.841
32318SOL    HW198961   9.349   4.486   7.903
32318SOL    HW298962   9.278   4.472   7.771
32319SOL     OW98963   7.940   5.148   7.569
32319SOL    HW198964   7.857   5.134   7.617
32319SOL    HW298965   7.926   5.097   7.488
32320SOL     OW98966   9.127   5.013   8.101
32320SOL    HW198967   9.225   5.015   8.104
32320SOL    HW298968   9.101   5.100   8.133
32321SOL     OW98969   8.848   4.316   7.504
32321SOL    HW198970   8.802   4.289   7.587
32321SOL    HW298971   8.937   4.283   7.520
32322SOL     OW98972   7.972   3.961   7.764
32322SOL    HW198973   8.016   3.928   7.683
32322SOL    HW298974   7.940   4.048   7.733
32323SOL     OW98975   9.188   4.958   9.019
32323SOL    HW198976   9.276   4.918   9.021
32323SOL    HW298977   9.210   5.051   9.040
32324SOL     OW98978   8.517   5.083   8.777
32324SOL    HW198979   8.441   5.054   8.830
32324SOL    HW298980   8.591   5.035   8.821
32325SOL     OW98981   9.056   5.326   9.086
32325SOL    HW198982   9.062   5.366   8.998
32325SOL    HW298983   9.139   5.275   9.091
32326SOL     OW98984   8.560   4.947   8.533
32326SOL    HW198985   8.504   4.981   8.604
32326SOL    HW298986   8.529   4.997   8.456
32327SOL     OW98987   9.044   4.814   8.527
32327SOL    HW198988   9.055   4.875   8.603
32327SOL    HW298989   8.988   4.866   8.469
32328SOL     OW98990   8.364   3.820   8.841
32328SOL    HW198991   8.399   3.795   8.753
32328SOL    HW298992   8.442   3.860   8.884
32329SOL     OW98993   8.445   4.849   9.194
32329SOL    HW198994   8.367   4.896   9.228
32329SOL    HW298995   8.408   4.796   9.123
32330SOL     OW98996   8.165   4.787   7.789
32330SOL    HW198997   8.148   4.763   7.881
32330SOL    HW298998   8.241   4.729   7.766
32331SOL     OW98999   7.866   4.533   8.710
32331SOL    HW199000   7.938   4.536   8.777
32331SOL    HW299001   7.827   4.445   8.725
32332SOL     OW99002   8.733   4.109   8.718
32332SOL    HW199003   8.757   4.187   8.771
32332SOL    HW299004   8.647   4.132   8.683
32333SOL     OW99005   7.524   5.295   8.788
32333SOL    HW199006   7.522   5.389   8.765
32333SOL    HW299007   7.619   5.275   8.780
32334SOL     OW99008   7.839   4.835   7.956
32334SOL    HW199009   7.839   4.895   7.881
32334SOL    HW299010   7.818   4.751   7.914
32335SOL     OW99011   7.983   4.276   8.288
32335SOL    HW199012   8.005   4.334   8.211
32335SOL    HW299013   8.066   4.276   8.336
32336SOL     OW99014   8.665   5.057   7.841
32336SOL    HW199015   8.710   5.135   7.877
32336SOL    HW299016   8.573   5.072   7.869
32337SOL     OW99017   8.753   5.196   8.618
32337SOL    HW199018   8.816   5.193   8.694
32337SOL    HW299019   8.686   5.131   8.643
32338SOL     OW99020   9.021   4.333   7.923
32338SOL    HW199021   8.975   4.391   7.986
32338SOL    HW299022   9.057   4.397   7.860
32339SOL     OW99023   7.785   5.240   8.755
32339SOL    HW199024   7.779   5.200   8.665
32339SOL    HW299025   7.880   5.261   8.758
32340SOL     OW99026   7.888   4.450   9.082
32340SOL    HW199027   7.937   4.494   9.010
32340SOL    HW299028   7.905   4.357   9.063
32341SOL     OW99029   9.071   4.498   9.127
32341SOL    HW199030   8.985   4.543   9.130
32341SOL    HW299031   9.115   4.545   9.053
32342SOL     OW99032   8.434   3.836   9.192
32342SOL    HW199033   8.501   3.904   9.185
32342SOL    HW299034   8.482   3.759   9.156
32343SOL     OW99035   7.949   3.745   9.202
32343SOL    HW199036   7.908   3.687   9.136
32343SOL    HW299037   7.882   3.817   9.207
32344SOL     OW99038   8.053   4.610   8.511
32344SOL    HW199039   8.068   4.705   8.502
32344SOL    HW299040   7.980   4.605   8.575
32345SOL     OW99041   8.778   4.544   8.528
32345SOL    HW199042   8.714   4.533   8.456
32345SOL    HW299043   8.837   4.469   8.514
32346SOL     OW99044   8.677   4.244   7.715
32346SOL    HW199045   8.679   4.167   7.775
32346SOL    HW299046   8.613   4.302   7.761
32347SOL     OW99047   7.753   3.927   8.699
32347SOL    HW199048   7.703   3.954   8.778
32347SOL    HW299049   7.729   3.832   8.694
32348SOL     OW99050   7.478   5.024   8.735
32348SOL    HW199051   7.504   4.968   8.811
32348SOL    HW299052   7.489   5.115   8.768
32349SOL     OW99053   8.202   4.381   8.520
32349SOL    HW199054   8.254   4.354   8.443
32349SOL    HW299055   8.152   4.460   8.491
32350SOL     OW99056   9.211   4.683   9.291
32350SOL    HW199057   9.164   4.612   9.244
32350SOL    HW299058   9.146   4.705   9.360
32351SOL     OW99059   7.740   3.791   8.055
32351SOL    HW199060   7.720   3.883   8.080
32351SOL    HW299061   7.746   3.748   8.142
32352SOL     OW99062   9.049   4.102   7.791
32352SOL    HW199063   9.077   4.030   7.850
32352SOL    HW299064   9.036   4.177   7.853
32353SOL     OW99065   8.515   4.478   8.417
32353SOL    HW199066   8.504   4.495   8.511
32353SOL    HW299067   8.475   4.389   8.407
32354SOL     OW99068   8.421   5.289   9.152
32354SOL    HW199069   8.413   5.342   9.070
32354SOL    HW299070   8.458   5.205   9.120
32355SOL     OW99071   9.303   5.218   9.051
32355SOL    HW199072   9.328   5.243   8.960
32355SOL    HW299073   9.381   5.246   9.102
32356SOL     OW99074   7.792   4.616   9.259
32356SOL    HW199075   7.874   4.644   9.302
32356SOL    HW299076   7.823   4.546   9.198
32357SOL     OW99077   8.960   3.976   7.570
32357SOL    HW199078   8.883   3.930   7.607
32357SOL    HW299079   8.998   4.021   7.648
32358SOL     OW99080   8.727   4.562   7.473
32358SOL    HW199081   8.767   4.474   7.484
32358SOL    HW299082   8.761   4.588   7.385
32359SOL     OW99083   8.514   5.092   8.293
32359SOL    HW199084   8.534   5.016   8.236
32359SOL    HW299085   8.581   5.158   8.270
32360SOL     OW99086   7.736   4.540   8.453
32360SOL    HW199087   7.826   4.550   8.421
32360SOL    HW299088   7.735   4.446   8.479
32361SOL     OW99089   7.777   4.267   8.455
32361SOL    HW199090   7.741   4.179   8.437
32361SOL    HW299091   7.843   4.278   8.383
32362SOL     OW99092   8.599   4.094   9.138
32362SOL    HW199093   8.557   4.146   9.210
32362SOL    HW299094   8.689   4.135   9.136
32363SOL     OW99095   8.616   3.918   8.938
32363SOL    HW199096   8.613   3.984   9.010
32363SOL    HW299097   8.659   3.968   8.867
32364SOL     OW99098   7.449   5.046   7.648
32364SOL    HW199099   7.357   5.061   7.614
32364SOL    HW299100   7.446   4.954   7.678
32365SOL     OW99101   7.544   5.511   8.393
32365SOL    HW199102   7.515   5.440   8.332
32365SOL    HW299103   7.635   5.529   8.361
32366SOL     OW99104   7.931   5.319   8.371
32366SOL    HW199105   8.002   5.379   8.402
32366SOL    HW299106   7.982   5.254   8.318
32367SOL     OW99107   8.420   4.500   8.705
32367SOL    HW199108   8.475   4.431   8.743
32367SOL    HW299109   8.342   4.452   8.674
32368SOL     OW99110   7.465   4.244   8.558
32368SOL    HW199111   7.541   4.226   8.501
32368SOL    HW299112   7.506   4.261   8.643
32369SOL     OW99113   7.670   4.240   9.168
32369SOL    HW199114   7.715   4.190   9.099
32369SOL    HW299115   7.622   4.308   9.118
32370SOL     OW99116   8.837   4.645   9.098
32370SOL    HW199117   8.865   4.738   9.099
32370SOL    HW299118   8.844   4.625   9.002
32371SOL     OW99119   8.247   4.299   7.826
32371SOL    HW199120   8.258   4.229   7.759
32371SOL    HW299121   8.172   4.350   7.792
32372SOL     OW99122   9.088   4.337   8.657
32372SOL    HW199123   9.074   4.268   8.723
32372SOL    HW299124   9.174   4.311   8.618
32373SOL     OW99125   7.693   5.264   9.171
32373SOL    HW199126   7.680   5.333   9.238
32373SOL    HW299127   7.699   5.183   9.226
32374SOL     OW99128   8.131   4.204   8.715
32374SOL    HW199129   8.084   4.128   8.678
32374SOL    HW299130   8.136   4.266   8.639
32375SOL     OW99131   8.370   5.422   8.922
32375SOL    HW199132   8.352   5.390   8.832
32375SOL    HW299133   8.366   5.519   8.912
32376SOL     OW99134   7.885   4.194   7.652
32376SOL    HW199135   7.953   4.264   7.652
32376SOL    HW299136   7.803   4.248   7.650
32377SOL     OW99137   7.557   4.850   8.922
32377SOL    HW199138   7.568   4.794   9.002
32377SOL    HW299139   7.576   4.788   8.849
32378SOL     OW99140   8.768   4.765   8.686
32378SOL    HW199141   8.776   4.691   8.622
32378SOL    HW299142   8.706   4.823   8.640
32379SOL     OW99143   8.758   4.581   7.744
32379SOL    HW199144   8.678   4.549   7.788
32379SOL    HW299145   8.732   4.585   7.651
32380SOL     OW99146   9.202   5.466   8.579
32380SOL    HW199147   9.278   5.491   8.523
32380SOL    HW299148   9.195   5.370   8.561
32381SOL     OW99149   8.689   5.453   8.563
32381SOL    HW199150   8.779   5.476   8.534
32381SOL    HW299151   8.698   5.356   8.574
32382SOL     OW99152   7.552   4.981   8.478
32382SOL    HW199153   7.523   4.991   8.572
32382SOL    HW299154   7.477   4.934   8.439
32383SOL     OW99155   8.134   5.372   9.184
32383SOL    HW199156   8.079   5.452   9.175
32383SOL    HW299157   8.216   5.398   9.140
32384SOL     OW99158   9.129   3.866   7.936
32384SOL    HW199159   9.208   3.853   7.880
32384SOL    HW299160   9.130   3.786   7.992
32385SOL     OW99161   8.807   5.309   7.930
32385SOL    HW199162   8.865   5.330   7.854
32385SOL    HW299163   8.768   5.395   7.950
32386SOL     OW99164   7.597   5.515   9.280
32386SOL    HW199165   7.551   5.446   9.332
32386SOL    HW299166   7.643   5.562   9.351
32387SOL     OW99167   8.698   4.642   8.115
32387SOL    HW199168   8.779   4.589   8.126
32387SOL    HW299169   8.733   4.722   8.070
32388SOL     OW99170   8.258   4.985   8.886
32388SOL    HW199171   8.224   5.035   8.963
32388SOL    HW299172   8.196   5.014   8.817
32389SOL     OW99173   8.114   5.342   7.606
32389SOL    HW199174   8.130   5.352   7.510
32389SOL    HW299175   8.056   5.263   7.605
32390SOL     OW99176   9.063   5.444   8.837
32390SOL    HW199177   9.109   5.460   8.753
32390SOL    HW299178   9.049   5.534   8.871
32391SOL     OW99179   9.287   3.887   8.422
32391SOL    HW199180   9.311   3.802   8.382
32391SOL    HW299181   9.201   3.908   8.381
32392SOL     OW99182   7.699   4.046   8.151
32392SOL    HW199183   7.613   4.089   8.134
32392SOL    HW299184   7.704   4.050   8.248
32393SOL     OW99185   8.629   5.357   7.474
32393SOL    HW199186   8.636   5.261   7.487
32393SOL    HW299187   8.570   5.363   7.396
32394SOL     OW99188   8.278   4.722   8.849
32394SOL    HW199189   8.280   4.725   8.752
32394SOL    HW299190   8.274   4.818   8.871
32395SOL     OW99191   8.364   4.634   7.721
32395SOL    HW199192   8.441   4.678   7.679
32395SOL    HW299193   8.403   4.555   7.763
32396SOL     OW99194   9.000   5.354   7.481
32396SOL    HW199195   8.904   5.363   7.476
32396SOL    HW299196   9.026   5.355   7.387
32397SOL     OW99197   7.779   5.007   8.939
32397SOL    HW199198   7.769   5.077   8.873
32397SOL    HW299199   7.698   4.953   8.927
32398SOL     OW99200   9.053   5.028   8.710
32398SOL    HW199201   9.114   5.006   8.782
32398SOL    HW299202   8.999   5.099   8.750
32399SOL     OW99203   8.500   4.837   8.176
32399SOL    HW199204   8.426   4.788   8.214
32399SOL    HW299205   8.557   4.767   8.143
32400SOL     OW99206   8.473   3.954   8.441
32400SOL    HW199207   8.464   3.913   8.352
32400SOL    HW299208   8.475   3.874   8.497
32401SOL     OW99209   8.065   5.212   7.943
32401SOL    HW199210   8.116   5.164   7.875
32401SOL    HW299211   7.992   5.249   7.894
32402SOL     OW99212   9.160   4.105   8.827
32402SOL    HW199213   9.231   4.172   8.824
32402SOL    HW299214   9.201   4.035   8.771
32403SOL     OW99215   7.693   5.103   7.719
32403SOL    HW199216   7.597   5.087   7.709
32403SOL    HW299217   7.700   5.126   7.814
32404SOL     OW99218   7.568   4.731   9.163
32404SOL    HW199219   7.495   4.719   9.228
32404SOL    HW299220   7.646   4.697   9.213
32405SOL     OW99221   8.119   3.913   8.928
32405SOL    HW199222   8.204   3.881   8.892
32405SOL    HW299223   8.146   3.945   9.016
32406SOL     OW99224   7.541   4.074   7.473
32406SOL    HW199225   7.448   4.071   7.451
32406SOL    HW299226   7.573   4.145   7.414
32407SOL     OW99227   8.909   4.585   8.844
32407SOL    HW199228   8.869   4.647   8.780
32407SOL    HW299229   9.003   4.607   8.836
32408SOL     OW99230   7.489   3.888   7.737
32408SOL    HW199231   7.487   3.977   7.699
32408SOL    HW299232   7.576   3.855   7.707
32409SOL     OW99233   8.651   5.078   7.556
32409SOL    HW199234   8.573   5.023   7.565
32409SOL    HW299235   8.679   5.087   7.649
32410SOL     OW99236   8.059   4.546   8.886
32410SOL    HW199237   8.113   4.626   8.879
32410SOL    HW299238   8.127   4.476   8.885
32411SOL     OW99239   8.956   5.489   8.415
32411SOL    HW199240   8.987   5.542   8.341
32411SOL    HW299241   9.037   5.475   8.466
32412SOL     OW99242   8.189   4.262   9.135
32412SOL    HW199243   8.191   4.291   9.226
32412SOL    HW299244   8.194   4.164   9.143
32413SOL     OW99245   8.917   4.907   9.073
32413SOL    HW199246   8.910   4.914   9.170
32413SOL    HW299247   9.011   4.926   9.057
32414SOL     OW99248   7.820   5.458   9.010
32414SOL    HW199249   7.735   5.505   8.996
32414SOL    HW299250   7.789   5.373   9.046
32415SOL     OW99251   9.163   4.602   8.686
32415SOL    HW199252   9.136   4.513   8.655
32415SOL    HW299253   9.118   4.662   8.624
32416SOL     OW99254   8.650   4.042   7.913
32416SOL    HW199255   8.722   3.976   7.907
32416SOL    HW299256   8.679   4.097   7.990
32417SOL     OW99257   8.041   4.469   8.100
32417SOL    HW199258   8.068   4.562   8.095
32417SOL    HW299259   7.978   4.461   8.027
32418SOL     OW99260   9.214   4.103   9.087
32418SOL    HW199261   9.187   4.112   8.994
32418SOL    HW299262   9.138   4.056   9.125
32419SOL     OW99263   9.184   4.661   8.946
32419SOL    HW199264   9.212   4.754   8.945
32419SOL    HW299265   9.202   4.633   8.854
32420SOL     OW99266   8.301   5.085   7.472
32420SOL    HW199267   8.282   5.102   7.565
32420SOL    HW299268   8.328   5.171   7.438
32421SOL     OW99269   8.101   5.525   8.394
32421SOL    HW199270   8.088   5.618   8.370
32421SOL    HW299271   8.196   5.511   8.382
32422SOL     OW99272   8.321   4.671   8.307
32422SOL    HW199273   8.370   4.598   8.345
32422SOL    HW299274   8.312   4.733   8.381
32423SOL     OW99275   8.556   4.742   7.558
32423SOL    HW199276   8.514   4.782   7.480
32423SOL    HW299277   8.608   4.670   7.516
32424SOL     OW99278   9.312   5.282   8.278
32424SOL    HW199279   9.217   5.280   8.262
32424SOL    HW299280   9.324   5.215   8.346
32425SOL     OW99281   7.686   5.038   9.320
32425SOL    HW199282   7.611   4.989   9.285
32425SOL    HW299283   7.662   5.048   9.413
32426SOL     OW99284   7.525   4.986   8.116
32426SOL    HW199285   7.518   4.927   8.191
32426SOL    HW299286   7.601   4.948   8.068
32427SOL     OW99287   8.121   5.127   9.067
32427SOL    HW199288   8.044   5.079   9.100
32427SOL    HW299289   8.112   5.214   9.109
32428SOL     OW99290   9.261   3.907   8.682
32428SOL    HW199291   9.281   3.815   8.698
32428SOL    HW299292   9.272   3.911   8.584
32429SOL     OW99293   7.891   4.150   7.982
32429SOL    HW199294   7.926   4.077   7.929
32429SOL    HW299295   7.837   4.108   8.050
32430SOL     OW99296   9.164   5.207   8.524
32430SOL    HW199297   9.081   5.179   8.482
32430SOL    HW299298   9.163   5.148   8.601
32431SOL     OW99299   7.777   4.259   8.740
32431SOL    HW199300   7.846   4.213   8.791
32431SOL    HW299301   7.793   4.229   8.649
32432SOL     OW99302   8.267   5.318   8.125
32432SOL    HW199303   8.261   5.346   8.033
32432SOL    HW299304   8.183   5.272   8.138
32433SOL     OW99305   8.880   3.964   8.548
32433SOL    HW199306   8.911   3.883   8.590
32433SOL    HW299307   8.835   4.011   8.622
32434SOL     OW99308   8.473   3.726   8.603
32434SOL    HW199309   8.417   3.651   8.580
32434SOL    HW299310   8.563   3.686   8.594
32435SOL     OW99311   8.238   5.062   7.760
32435SOL    HW199312   8.205   4.971   7.756
32435SOL    HW299313   8.305   5.055   7.829
32436SOL     OW99314   8.049   5.277   8.715
32436SOL    HW199315   8.050   5.360   8.768
32436SOL    HW299316   8.143   5.276   8.689
32437SOL     OW99317   8.762   3.758   7.632
32437SOL    HW199318   8.776   3.699   7.557
32437SOL    HW299319   8.674   3.727   7.663
32438SOL     OW99320   8.717   4.188   8.125
32438SOL    HW199321   8.666   4.272   8.125
32438SOL    HW299322   8.711   4.159   8.217
32439SOL     OW99323   9.045   3.933   8.315
32439SOL    HW199324   8.976   3.950   8.381
32439SOL    HW299325   9.045   4.014   8.262
32440SOL     OW99326   7.491   4.793   7.762
32440SOL    HW199327   7.584   4.784   7.737
32440SOL    HW299328   7.470   4.700   7.785
32441SOL     OW99329   8.317   5.371   7.782
32441SOL    HW199330   8.241   5.359   7.722
32441SOL    HW299331   8.297   5.454   7.830
32442SOL     OW99332   7.685   4.353   9.447
32442SOL    HW199333   7.590   4.358   9.464
32442SOL    HW299334   7.692   4.340   9.351
32443SOL     OW99335   7.628   3.967  10.291
32443SOL    HW199336   7.658   3.981  10.384
32443SOL    HW299337   7.693   3.902  10.261
32444SOL     OW99338   7.438   4.114   9.975
32444SOL    HW199339   7.348   4.144   9.997
32444SOL    HW299340   7.421   4.047   9.908
32445SOL     OW99341   8.016   5.026  10.457
32445SOL    HW199342   7.922   5.008  10.447
32445SOL    HW299343   8.016   5.109  10.507
32446SOL     OW99344   9.004   5.249  10.023
32446SOL    HW199345   8.967   5.223  10.110
32446SOL    HW299346   8.927   5.247   9.963
32447SOL     OW99347   8.571   4.405  10.002
32447SOL    HW199348   8.608   4.494   9.986
32447SOL    HW299349   8.518   4.422  10.081
32448SOL     OW99350   9.224   4.331   9.548
32448SOL    HW199351   9.201   4.323   9.453
32448SOL    HW299352   9.165   4.266   9.588
32449SOL     OW99353   8.206   4.883  10.336
32449SOL    HW199354   8.136   4.930  10.386
32449SOL    HW299355   8.237   4.957  10.280
32450SOL     OW99356   8.318   4.469   0.024
32450SOL    HW199357   8.312   4.541   0.089
32450SOL    HW299358   8.344   4.517  11.045
32451SOL     OW99359   8.145   4.762   9.970
32451SOL    HW199360   8.204   4.740  10.044
32451SOL    HW299361   8.067   4.802  10.015
32452SOL     OW99362   7.755   5.165  10.389
32452SOL    HW199363   7.689   5.120  10.333
32452SOL    HW299364   7.815   5.208  10.324
32453SOL     OW99365   8.915   5.230  10.657
32453SOL    HW199366   8.978   5.306  10.668
32453SOL    HW299367   8.850   5.248  10.727
32454SOL     OW99368   7.895   4.112  10.773
32454SOL    HW199369   7.977   4.059  10.784
32454SOL    HW299370   7.827   4.055  10.810
32455SOL     OW99371   9.071   4.169  10.052
32455SOL    HW199372   9.001   4.205   9.995
32455SOL    HW299373   9.068   4.228  10.127
32456SOL     OW99374   7.668   5.448   9.790
32456SOL    HW199375   7.701   5.524   9.843
32456SOL    HW299376   7.730   5.449   9.716
32457SOL     OW99377   7.699   5.161   9.853
32457SOL    HW199378   7.693   5.258   9.855
32457SOL    HW299379   7.628   5.133   9.912
32458SOL     OW99380   7.712   4.797  10.189
32458SOL    HW199381   7.723   4.720  10.246
32458SOL    HW299382   7.661   4.857  10.245
32459SOL     OW99383   8.037   5.523  10.724
32459SOL    HW199384   7.968   5.504  10.790
32459SOL    HW299385   8.064   5.614  10.747
32460SOL     OW99386   8.014   4.718   9.425
32460SOL    HW199387   8.063   4.771   9.359
32460SOL    HW299388   8.054   4.751   9.508
32461SOL     OW99389   9.042   3.836  10.781
32461SOL    HW199390   9.035   3.926  10.745
32461SOL    HW299391   9.029   3.849  10.875
32462SOL     OW99392   7.564   4.387   9.877
32462SOL    HW199393   7.536   4.298   9.904
32462SOL    HW299394   7.562   4.436   9.962
32463SOL     OW99395   9.292   5.455   9.661
32463SOL    HW199396   9.365   5.440   9.725
32463SOL    HW299397   9.310   5.547   9.636
32464SOL     OW99398   7.507   5.314   9.432
32464SOL    HW199399   7.492   5.220   9.452
32464SOL    HW299400   7.477   5.357   9.514
32465SOL     OW99401   9.131   4.639   9.914
32465SOL    HW199402   9.212   4.604   9.874
32465SOL    HW299403   9.104   4.703   9.846
32466SOL     OW99404   9.094   4.856   9.747
32466SOL    HW199405   9.186   4.849   9.719
32466SOL    HW299406   9.101   4.918   9.822
32467SOL     OW99407   7.569   4.467  10.902
32467SOL    HW199408   7.661   4.488  10.923
32467SOL    HW299409   7.529   4.555  10.908
32468SOL     OW99410   8.041   5.132  10.064
32468SOL    HW199411   8.002   5.042  10.072
32468SOL    HW299412   8.025   5.151   9.970
32469SOL     OW99413   8.750   4.974  10.754
32469SOL    HW199414   8.769   4.897  10.698
32469SOL    HW299415   8.802   4.954  10.833
32470SOL     OW99416   8.281   3.729   9.804
32470SOL    HW199417   8.310   3.822   9.804
32470SOL    HW299418   8.187   3.737   9.824
32471SOL     OW99419   7.647   4.685  10.602
32471SOL    HW199420   7.737   4.649  10.586
32471SOL    HW299421   7.590   4.624  10.553
32472SOL     OW99422   8.990   4.695   9.497
32472SOL    HW199423   8.909   4.653   9.532
32472SOL    HW299424   9.028   4.735   9.577
32473SOL     OW99425   8.670   5.526  10.912
32473SOL    HW199426   8.646   5.593  10.847
32473SOL    HW299427   8.671   5.445  10.859
32474SOL     OW99428   7.798   3.947   0.014
32474SOL    HW199429   7.861   4.018   0.032
32474SOL    HW299430   7.716   3.998  11.101
32475SOL     OW99431   8.925   5.144  10.265
32475SOL    HW199432   8.859   5.159  10.335
32475SOL    HW299433   8.907   5.052  10.239
32476SOL     OW99434   9.106   5.467   9.914
32476SOL    HW199435   9.079   5.434   9.827
32476SOL    HW299436   9.083   5.391   9.970
32477SOL     OW99437   8.031   4.435   9.574
32477SOL    HW199438   8.031   4.527   9.547
32477SOL    HW299439   7.964   4.435   9.646
32478SOL     OW99440   8.730   4.060  10.224
32478SOL    HW199441   8.639   4.026  10.236
32478SOL    HW299442   8.777   4.020  10.299
32479SOL     OW99443   9.022   5.367   9.620
32479SOL    HW199444   9.116   5.387   9.625
32479SOL    HW299445   9.010   5.359   9.523
32480SOL     OW99446   8.265   4.336  10.776
32480SOL    HW199447   8.235   4.308  10.865
32480SOL    HW299448   8.216   4.274  10.717
32481SOL     OW99449   8.406   4.594  10.892
32481SOL    HW199450   8.454   4.524  10.843
32481SOL    HW299451   8.363   4.644  10.821
32482SOL     OW99452   8.435   4.123  10.555
32482SOL    HW199453   8.348   4.133  10.597
32482SOL    HW299454   8.415   4.068  10.478
32483SOL     OW99455   8.491   4.412   9.713
32483SOL    HW199456   8.509   4.428   9.807
32483SOL    HW299457   8.406   4.363   9.718
32484SOL     OW99458   7.548   4.527  10.110
32484SOL    HW199459   7.621   4.531  10.174
32484SOL    HW299460   7.506   4.614  10.123
32485SOL     OW99461   7.559   5.565  10.868
32485SOL    HW199462   7.556   5.515  10.950
32485SOL    HW299463   7.467   5.565  10.840
32486SOL     OW99464   8.321   4.093   9.521
32486SOL    HW199465   8.366   4.142   9.451
32486SOL    HW299466   8.331   4.002   9.490
32487SOL     OW99467   8.813   4.870   9.874
32487SOL    HW199468   8.892   4.864   9.818
32487SOL    HW299469   8.758   4.931   9.823
32488SOL     OW99470   7.990   3.939  10.208
32488SOL    HW199471   8.002   3.940  10.305
32488SOL    HW299472   8.019   4.027  10.181
32489SOL     OW99473   8.438   5.173   9.780
32489SOL    HW199474   8.388   5.237   9.725
32489SOL    HW299475   8.447   5.221   9.863
32490SOL     OW99476   7.791   5.532  10.170
32490SOL    HW199477   7.838   5.450  10.192
32490SOL    HW299478   7.859   5.600  10.184
32491SOL     OW99479   9.265   4.764  10.164
32491SOL    HW199480   9.201   4.754  10.092
32491SOL    HW299481   9.209   4.764  10.242
32492SOL     OW99482   8.680   5.284  10.798
32492SOL    HW199483   8.656   5.219  10.865
32492SOL    HW299484   8.618   5.263  10.727
32493SOL     OW99485   7.756   4.665   9.562
32493SOL    HW199486   7.830   4.688   9.504
32493SOL    HW299487   7.724   4.582   9.523
32494SOL     OW99488   8.917   4.493  10.037
32494SOL    HW199489   8.928   4.455  10.125
32494SOL    HW299490   9.003   4.535  10.021
32495SOL     OW99491   7.903   5.022  11.042
32495SOL    HW199492   7.872   5.018  10.949
32495SOL    HW299493   7.864   4.942  11.079
32496SOL     OW99494   8.551   5.475   9.557
32496SOL    HW199495   8.477   5.429   9.599
32496SOL    HW299496   8.557   5.431   9.470
32497SOL     OW99497   7.625   4.003  10.786
32497SOL    HW199498   7.588   4.091  10.801
32497SOL    HW299499   7.587   3.951  10.858
32498SOL     OW99500   9.064   5.080   9.405
32498SOL    HW199501   9.024   5.166   9.384
32498SOL    HW299502   9.001   5.016   9.368
32499SOL     OW99503   7.908   5.463   9.630
32499SOL    HW199504   7.956   5.514   9.698
32499SOL    HW299505   7.979   5.430   9.573
32500SOL     OW99506   8.835   3.865   9.741
32500SOL    HW199507   8.834   3.806   9.664
32500SOL    HW299508   8.930   3.867   9.763
32501SOL     OW99509   7.685   5.521  10.536
32501SOL    HW199510   7.758   5.469  10.572
32501SOL    HW299511   7.678   5.489  10.445
32502SOL     OW99512   8.409   5.428  10.189
32502SOL    HW199513   8.489   5.376  10.202
32502SOL    HW299514   8.362   5.375  10.121
32503SOL     OW99515   7.851   4.413   9.774
32503SOL    HW199516   7.868   4.319   9.798
32503SOL    HW299517   7.756   4.420   9.790
32504SOL     OW99518   8.078   3.855   9.407
32504SOL    HW199519   8.145   3.791   9.433
32504SOL    HW299520   8.027   3.804   9.341
32505SOL     OW99521   8.222   3.975  11.035
32505SOL    HW199522   8.301   3.942  11.080
32505SOL    HW299523   8.156   3.974   0.004
32506SOL     OW99524   8.336   5.259  10.510
32506SOL    HW199525   8.324   5.228  10.418
32506SOL    HW299526   8.406   5.202  10.544
32507SOL     OW99527   8.791   4.317  10.733
32507SOL    HW199528   8.845   4.283  10.805
32507SOL    HW299529   8.833   4.404  10.717
32508SOL     OW99530   8.256   5.141  10.246
32508SOL    HW199531   8.343   5.132  10.202
32508SOL    HW299532   8.193   5.137  10.172
32509SOL     OW99533   8.400   4.241  10.220
32509SOL    HW199534   8.371   4.231  10.127
32509SOL    HW299535   8.420   4.150  10.244
32510SOL     OW99536   8.008   3.776   9.812
32510SOL    HW199537   7.933   3.785   9.873
32510SOL    HW299538   7.993   3.853   9.752
32511SOL     OW99539   8.886   4.892   9.331
32511SOL    HW199540   8.915   4.821   9.392
32511SOL    HW299541   8.801   4.920   9.369
32512SOL     OW99542   7.727   3.774   9.506
32512SOL    HW199543   7.788   3.844   9.480
32512SOL    HW299544   7.787   3.708   9.544
32513SOL     OW99545   8.383   3.983   9.809
32513SOL    HW199546   8.365   4.026   9.724
32513SOL    HW299547   8.480   3.996   9.815
32514SOL     OW99548   8.544   4.403  10.753
32514SOL    HW199549   8.488   4.324  10.757
32514SOL    HW299550   8.635   4.366  10.755
32515SOL     OW99551   8.675   5.309  10.115
32515SOL    HW199552   8.684   5.364  10.035
32515SOL    HW299553   8.749   5.339  10.169
32516SOL     OW99554   7.920   4.878  10.051
32516SOL    HW199555   7.846   4.845  10.107
32516SOL    HW299556   7.884   4.859   9.962
32517SOL     OW99557   8.702   5.537   9.913
32517SOL    HW199558   8.747   5.611   9.869
32517SOL    HW299559   8.648   5.583   9.980
32518SOL     OW99560   8.509   4.251   9.342
32518SOL    HW199561   8.477   4.342   9.335
32518SOL    HW299562   8.578   4.257   9.410
32519SOL     OW99563   7.535   4.286  10.705
32519SOL    HW199564   7.627   4.290  10.673
32519SOL    HW299565   7.532   4.363  10.767
32520SOL     OW99566   8.017   3.943  10.475
32520SOL    HW199567   8.064   3.871  10.519
32520SOL    HW299568   7.933   3.944  10.523
32521SOL     OW99569   8.316   4.189   9.980
32521SOL    HW199570   8.270   4.239   9.911
32521SOL    HW299571   8.345   4.110   9.932
32522SOL     OW99572   8.508   3.800  10.076
32522SOL    HW199573   8.459   3.793   9.994
32522SOL    HW299574   8.474   3.722  10.125
32523SOL     OW99575   8.873   4.891  10.194
32523SOL    HW199576   8.800   4.833  10.215
32523SOL    HW299577   8.869   4.893  10.097
32524SOL     OW99578   8.912   4.317  10.287
32524SOL    HW199579   8.867   4.232  10.300
32524SOL    HW299580   8.981   4.318  10.355
32525SOL     OW99581   9.293   4.543   9.703
32525SOL    HW199582   9.351   4.489   9.761
32525SOL    HW299583   9.273   4.478   9.632
32526SOL     OW99584   7.942   5.152   9.439
32526SOL    HW199585   7.860   5.142   9.492
32526SOL    HW299586   7.921   5.102   9.360
32527SOL     OW99587   9.128   5.012   9.966
32527SOL    HW199588   9.224   5.015   9.981
32527SOL    HW299589   9.097   5.101   9.989
32528SOL     OW99590   8.859   4.316   9.374
32528SOL    HW199591   8.808   4.289   9.454
32528SOL    HW299592   8.947   4.282   9.395
32529SOL     OW99593   7.964   3.961   9.631
32529SOL    HW199594   8.011   3.926   9.552
32529SOL    HW299595   7.934   4.047   9.595
32530SOL     OW99596   9.199   4.957  10.873
32530SOL    HW199597   9.292   4.933  10.887
32530SOL    HW299598   9.199   5.051  10.896
32531SOL     OW99599   8.507   5.092  10.657
32531SOL    HW199600   8.433   5.047  10.702
32531SOL    HW299601   8.585   5.040  10.686
32532SOL     OW99602   8.560   4.950  10.409
32532SOL    HW199603   8.482   4.961  10.464
32532SOL    HW299604   8.536   4.998  10.328
32533SOL     OW99605   9.075   4.818  10.390
32533SOL    HW199606   9.081   4.882  10.463
32533SOL    HW299607   9.007   4.860  10.335
32534SOL     OW99608   8.353   3.853  10.685
32534SOL    HW199609   8.384   3.807  10.606
32534SOL    HW299610   8.437   3.879  10.728
32535SOL     OW99611   8.153   4.779   9.656
32535SOL    HW199612   8.142   4.756   9.749
32535SOL    HW299613   8.232   4.726   9.631
32536SOL     OW99614   7.881   4.543  10.594
32536SOL    HW199615   7.951   4.549  10.661
32536SOL    HW299616   7.851   4.451  10.605
32537SOL     OW99617   8.715   4.099  10.590
32537SOL    HW199618   8.737   4.183  10.634
32537SOL    HW299619   8.631   4.120  10.546
32538SOL     OW99620   7.522   5.291  10.638
32538SOL    HW199621   7.522   5.381  10.602
32538SOL    HW299622   7.618   5.274  10.650
32539SOL     OW99623   7.816   4.831   9.814
32539SOL    HW199624   7.852   4.891   9.748
32539SOL    HW299625   7.787   4.755   9.761
32540SOL     OW99626   7.982   4.269  10.149
32540SOL    HW199627   8.009   4.336  10.082
32540SOL    HW299628   8.051   4.281  10.217
32541SOL     OW99629   8.672   5.051   9.703
32541SOL    HW199630   8.713   5.131   9.739
32541SOL    HW299631   8.580   5.065   9.730
32542SOL     OW99632   8.738   5.180  10.462
32542SOL    HW199633   8.793   5.189  10.543
32542SOL    HW299634   8.673   5.113  10.487
32543SOL     OW99635   9.037   4.348   9.789
32543SOL    HW199636   8.978   4.400   9.846
32543SOL    HW299637   9.073   4.416   9.731
32544SOL     OW99638   7.790   5.224  10.640
32544SOL    HW199639   7.778   5.202  10.545
32544SOL    HW299640   7.885   5.246  10.644
32545SOL     OW99641   7.891   4.440  10.926
32545SOL    HW199642   7.958   4.489  10.873
32545SOL    HW299643   7.909   4.350  10.897
32546SOL     OW99644   9.067   4.486  11.000
32546SOL    HW199645   8.989   4.542  10.994
32546SOL    HW299646   9.130   4.536  10.946
32547SOL     OW99647   8.000   4.613  10.359
32547SOL    HW199648   8.052   4.695  10.356
32547SOL    HW299649   7.971   4.607  10.453
32548SOL     OW99650   8.778   4.570  10.348
32548SOL    HW199651   8.705   4.546  10.291
32548SOL    HW299652   8.836   4.493  10.340
32549SOL     OW99653   8.671   4.246   9.570
32549SOL    HW199654   8.677   4.172   9.634
32549SOL    HW299655   8.614   4.308   9.618
32550SOL     OW99656   7.728   3.943  10.542
32550SOL    HW199657   7.697   3.970  10.630
32550SOL    HW299658   7.717   3.846  10.547
32551SOL     OW99659   7.489   5.007  10.594
32551SOL    HW199660   7.524   4.957  10.671
32551SOL    HW299661   7.490   5.099  10.624
32552SOL     OW99662   8.152   4.360  10.341
32552SOL    HW199663   8.241   4.355  10.302
32552SOL    HW299664   8.123   4.451  10.324
32553SOL     OW99665   7.758   3.784   9.927
32553SOL    HW199666   7.723   3.871   9.953
32553SOL    HW299667   7.774   3.741  10.013
32554SOL     OW99668   9.045   4.102   9.667
32554SOL    HW199669   9.076   4.033   9.729
32554SOL    HW299670   9.039   4.181   9.724
32555SOL     OW99671   8.482   4.488  10.270
32555SOL    HW199672   8.478   4.506  10.365
32555SOL    HW299673   8.466   4.392  10.265
32556SOL     OW99674   8.439   5.272  10.969
32556SOL    HW199675   8.424   5.340  10.900
32556SOL    HW299676   8.401   5.194  10.927
32557SOL     OW99677   9.297   5.223  10.895
32557SOL    HW199678   9.318   5.246  10.803
32557SOL    HW299679   9.379   5.246  10.941
32558SOL     OW99680   7.822   4.641  11.074
32558SOL    HW199681   7.897   4.653   0.032
32558SOL    HW299682   7.850   4.562  11.023
32559SOL     OW99683   8.945   3.976   9.437
32559SOL    HW199684   8.885   3.905   9.466
32559SOL    HW299685   8.984   4.008   9.521
32560SOL     OW99686   8.736   4.556   9.332
32560SOL    HW199687   8.790   4.476   9.342
32560SOL    HW299688   8.767   4.588   9.244
32561SOL     OW99689   8.507   5.091  10.163
32561SOL    HW199690   8.516   5.014  10.103
32561SOL    HW299691   8.581   5.150  10.136
32562SOL     OW99692   7.736   4.545  10.316
32562SOL    HW199693   7.831   4.566  10.316
32562SOL    HW299694   7.737   4.452  10.343
32563SOL     OW99695   7.768   4.245  10.312
32563SOL    HW199696   7.747   4.154  10.286
32563SOL    HW299697   7.839   4.268  10.248
32564SOL     OW99698   8.602   3.929  10.772
32564SOL    HW199699   8.634   3.986  10.842
32564SOL    HW299700   8.635   3.975  10.692
32565SOL     OW99701   7.452   5.046   9.505
32565SOL    HW199702   7.360   5.058   9.474
32565SOL    HW299703   7.450   4.954   9.540
32566SOL     OW99704   7.542   5.513  10.249
32566SOL    HW199705   7.513   5.438  10.193
32566SOL    HW299706   7.634   5.527  10.218
32567SOL     OW99707   7.937   5.300  10.251
32567SOL    HW199708   8.005   5.370  10.259
32567SOL    HW299709   7.979   5.239  10.188
32568SOL     OW99710   8.430   4.523  10.539
32568SOL    HW199711   8.493   4.485  10.604
32568SOL    HW299712   8.349   4.480  10.567
32569SOL     OW99713   7.480   4.229  10.439
32569SOL    HW199714   7.560   4.243  10.388
32569SOL    HW299715   7.509   4.247  10.530
32570SOL     OW99716   8.246   4.292   9.701
32570SOL    HW199717   8.257   4.224   9.632
32570SOL    HW299718   8.168   4.341   9.670
32571SOL     OW99719   9.098   4.345  10.493
32571SOL    HW199720   9.084   4.279  10.562
32571SOL    HW299721   9.181   4.314  10.454
32572SOL     OW99722   7.682   5.267  11.030
32572SOL    HW199723   7.630   5.299   0.006
32572SOL    HW299724   7.733   5.195  11.069
32573SOL     OW99725   8.139   4.208  10.578
32573SOL    HW199726   8.094   4.128  10.547
32573SOL    HW299727   8.135   4.267  10.500
32574SOL     OW99728   8.394   5.406  10.743
32574SOL    HW199729   8.364   5.376  10.656
32574SOL    HW299730   8.379   5.503  10.740
32575SOL     OW99731   7.892   4.191   9.514
32575SOL    HW199732   7.956   4.264   9.517
32575SOL    HW299733   7.808   4.241   9.504
32576SOL     OW99734   7.590   4.860  10.788
32576SOL    HW199735   7.590   4.807  10.871
32576SOL    HW299736   7.614   4.792  10.720
32577SOL     OW99737   8.761   4.759  10.549
32577SOL    HW199738   8.775   4.692  10.479
32577SOL    HW299739   8.702   4.822  10.505
32578SOL     OW99740   8.753   4.589   9.599
32578SOL    HW199741   8.672   4.556   9.639
32578SOL    HW299742   8.736   4.580   9.503
32579SOL     OW99743   9.208   5.475  10.434
32579SOL    HW199744   9.279   5.496  10.370
32579SOL    HW299745   9.204   5.377  10.427
32580SOL     OW99746   8.696   5.448  10.449
32580SOL    HW199747   8.781   5.474  10.414
32580SOL    HW299748   8.701   5.351  10.446
32581SOL     OW99749   7.554   4.957  10.340
32581SOL    HW199750   7.530   4.973  10.435
32581SOL    HW299751   7.469   4.932  10.303
32582SOL     OW99752   9.131   3.870   9.798
32582SOL    HW199753   9.206   3.854   9.737
32582SOL    HW299754   9.128   3.787   9.850
32583SOL     OW99755   8.807   5.311   9.804
32583SOL    HW199756   8.862   5.333   9.727
32583SOL    HW299757   8.763   5.396   9.825
32584SOL     OW99758   8.693   4.644   9.979
32584SOL    HW199759   8.775   4.595  10.000
32584SOL    HW299760   8.730   4.721   9.930
32585SOL     OW99761   8.264   4.990  10.751
32585SOL    HW199762   8.232   5.026  10.836
32585SOL    HW299763   8.202   5.028  10.688
32586SOL     OW99764   8.115   5.347   9.464
32586SOL    HW199765   8.133   5.356   9.368
32586SOL    HW299766   8.055   5.268   9.463
32587SOL     OW99767   9.077   5.437  10.675
32587SOL    HW199768   9.121   5.459  10.591
32587SOL    HW299769   9.061   5.526  10.713
32588SOL     OW99770   9.290   3.899  10.275
32588SOL    HW199771   9.310   3.808  10.244
32588SOL    HW299772   9.201   3.916  10.238
32589SOL     OW99773   7.686   4.030  10.009
32589SOL    HW199774   7.602   4.078   9.993
32589SOL    HW299775   7.727   4.080  10.080
32590SOL     OW99776   8.635   5.348   9.331
32590SOL    HW199777   8.639   5.252   9.348
32590SOL    HW299778   8.577   5.354   9.253
32591SOL     OW99779   8.274   4.718  10.696
32591SOL    HW199780   8.321   4.709  10.612
32591SOL    HW299781   8.283   4.813  10.716
32592SOL     OW99782   8.360   4.634   9.584
32592SOL    HW199783   8.437   4.678   9.544
32592SOL    HW299784   8.399   4.557   9.628
32593SOL     OW99785   8.981   5.340   9.343
32593SOL    HW199786   8.885   5.347   9.336
32593SOL    HW299787   9.008   5.341   9.248
32594SOL     OW99788   7.813   5.008  10.801
32594SOL    HW199789   7.792   5.083  10.741
32594SOL    HW299790   7.732   4.954  10.795
32595SOL     OW99791   9.061   5.026  10.577
32595SOL    HW199792   9.104   5.002  10.660
32595SOL    HW299793   9.000   5.097  10.609
32596SOL     OW99794   8.501   4.843  10.042
32596SOL    HW199795   8.421   4.794  10.070
32596SOL    HW299796   8.561   4.770  10.019
32597SOL     OW99797   8.481   3.960  10.297
32597SOL    HW199798   8.476   3.912  10.212
32597SOL    HW299799   8.480   3.885  10.360
32598SOL     OW99800   8.058   5.207   9.799
32598SOL    HW199801   8.112   5.168   9.727
32598SOL    HW299802   7.988   5.252   9.751
32599SOL     OW99803   9.151   4.114  10.693
32599SOL    HW199804   9.221   4.180  10.702
32599SOL    HW299805   9.193   4.049  10.632
32600SOL     OW99806   7.700   5.120   9.590
32600SOL    HW199807   7.605   5.100   9.582
32600SOL    HW299808   7.708   5.131   9.687
32601SOL     OW99809   7.578   4.731  11.013
32601SOL    HW199810   7.516   4.712  11.084
32601SOL    HW299811   7.665   4.705  11.050
32602SOL     OW99812   8.114   3.943  10.786
32602SOL    HW199813   8.197   3.917  10.740
32602SOL    HW299814   8.147   3.956  10.877
32603SOL     OW99815   7.541   4.065   9.324
32603SOL    HW199816   7.448   4.072   9.298
32603SOL    HW299817   7.579   4.143   9.280
32604SOL     OW99818   8.897   4.570  10.725
32604SOL    HW199819   8.841   4.634  10.679
32604SOL    HW299820   8.985   4.596  10.692
32605SOL     OW99821   7.493   3.889   9.608
32605SOL    HW199822   7.488   3.976   9.567
32605SOL    HW299823   7.576   3.855   9.569
32606SOL     OW99824   8.648   5.077   9.421
32606SOL    HW199825   8.560   5.039   9.431
32606SOL    HW299826   8.680   5.078   9.513
32607SOL     OW99827   8.087   4.539  10.766
32607SOL    HW199828   8.148   4.613  10.747
32607SOL    HW299829   8.149   4.465  10.770
32608SOL     OW99830   8.965   5.469  10.292
32608SOL    HW199831   8.997   5.519  10.216
32608SOL    HW299832   9.040   5.474  10.353
32609SOL     OW99833   8.165   4.271  11.022
32609SOL    HW199834   8.207   4.340  11.077
32609SOL    HW299835   8.208   4.190  11.051
32610SOL     OW99836   7.814   5.445  10.870
32610SOL    HW199837   7.738   5.502  10.850
32610SOL    HW299838   7.774   5.379  10.930
32611SOL     OW99839   9.135   4.614  10.579
32611SOL    HW199840   9.129   4.523  10.545
32611SOL    HW299841   9.112   4.669  10.502
32612SOL     OW99842   8.646   4.055   9.780
32612SOL    HW199843   8.711   3.983   9.762
32612SOL    HW299844   8.691   4.103   9.852
32613SOL     OW99845   8.057   4.477   9.962
32613SOL    HW199846   8.079   4.572   9.961
32613SOL    HW299847   7.984   4.472   9.898
32614SOL     OW99848   9.217   4.030  10.946
32614SOL    HW199849   9.184   4.053  10.857
32614SOL    HW299850   9.139   4.042  11.002
32615SOL     OW99851   9.207   4.665  10.834
32615SOL    HW199852   9.198   4.762  10.841
32615SOL    HW299853   9.194   4.649  10.738
32616SOL     OW99854   8.299   5.083   9.345
32616SOL    HW199855   8.272   5.102   9.436
32616SOL    HW299856   8.323   5.171   9.310
32617SOL     OW99857   8.095   5.510  10.221
32617SOL    HW199858   8.084   5.607  10.218
32617SOL    HW299859   8.191   5.499  10.221
32618SOL     OW99860   8.319   4.681  10.167
32618SOL    HW199861   8.371   4.605  10.200
32618SOL    HW299862   8.302   4.734  10.247
32619SOL     OW99863   8.553   4.733   9.410
32619SOL    HW199864   8.519   4.783   9.333
32619SOL    HW299865   8.612   4.669   9.367
32620SOL     OW99866   9.299   5.278  10.154
32620SOL    HW199867   9.222   5.267  10.097
32620SOL    HW299868   9.274   5.231  10.235
32621SOL     OW99869   7.534   4.977   9.983
32621SOL    HW199870   7.523   4.916  10.056
32621SOL    HW299871   7.620   4.950   9.947
32622SOL     OW99872   8.129   5.142  10.935
32622SOL    HW199873   8.055   5.091  10.975
32622SOL    HW299874   8.085   5.223  10.908
32623SOL     OW99875   9.263   3.925  10.540
32623SOL    HW199876   9.274   3.830  10.550
32623SOL    HW299877   9.271   3.936  10.443
32624SOL     OW99878   7.883   4.154   9.839
32624SOL    HW199879   7.929   4.093   9.780
32624SOL    HW299880   7.845   4.095   9.906
32625SOL     OW99881   9.177   5.211  10.409
32625SOL    HW199882   9.092   5.186  10.370
32625SOL    HW299883   9.178   5.152  10.487
32626SOL     OW99884   7.796   4.285  10.594
32626SOL    HW199885   7.844   4.219  10.650
32626SOL    HW299886   7.801   4.246  10.505
32627SOL     OW99887   8.277   5.313   9.983
32627SOL    HW199888   8.261   5.369   9.906
32627SOL    HW299889   8.192   5.267   9.995
32628SOL     OW99890   8.874   3.961  10.429
32628SOL    HW199891   8.912   3.884  10.474
32628SOL    HW299892   8.819   4.003  10.499
32629SOL     OW99893   8.472   3.736  10.458
32629SOL    HW199894   8.417   3.658  10.442
32629SOL    HW299895   8.561   3.694  10.470
32630SOL     OW99896   8.238   5.063   9.623
32630SOL    HW199897   8.201   4.974   9.634
32630SOL    HW299898   8.312   5.063   9.685
32631SOL     OW99899   8.061   5.281  10.613
32631SOL    HW199900   8.063   5.370  10.654
32631SOL    HW299901   8.136   5.286  10.553
32632SOL     OW99902   8.773   3.736   9.483
32632SOL    HW199903   8.778   3.668   9.415
32632SOL    HW299904   8.680   3.723   9.513
32633SOL     OW99905   8.765   4.200   9.991
32633SOL    HW199906   8.701   4.274   9.987
32633SOL    HW299907   8.745   4.159  10.077
32634SOL     OW99908   9.043   3.934  10.187
32634SOL    HW199909   8.970   3.946  10.249
32634SOL    HW299910   9.040   4.014  10.132
32635SOL     OW99911   7.493   4.798   9.617
32635SOL    HW199912   7.587   4.791   9.591
32635SOL    HW299913   7.470   4.705   9.633
32636SOL     OW99914   8.316   5.373   9.640
32636SOL    HW199915   8.239   5.364   9.580
32636SOL    HW299916   8.301   5.458   9.686
32637SOL     OW99917   7.689   6.243   0.148
32637SOL    HW199918   7.605   6.204   0.177
32637SOL    HW299919   7.706   6.201   0.063
32638SOL     OW99920   7.681   5.869   1.008
32638SOL    HW199921   7.702   5.847   1.101
32638SOL    HW299922   7.597   5.821   0.995
32639SOL     OW99923   7.449   5.998   0.637
32639SOL    HW199924   7.370   6.020   0.690
32639SOL    HW299925   7.422   5.916   0.595
32640SOL     OW99926   8.018   6.885   1.193
32640SOL    HW199927   7.928   6.877   1.160
32640SOL    HW299928   8.021   6.978   1.224
32641SOL     OW99929   8.989   7.115   0.718
32641SOL    HW199930   8.953   7.083   0.803
32641SOL    HW299931   8.915   7.105   0.656
32642SOL     OW99932   8.574   6.280   0.721
32642SOL    HW199933   8.616   6.365   0.696
32642SOL    HW299934   8.532   6.303   0.805
32643SOL     OW99935   9.236   6.192   0.216
32643SOL    HW199936   9.177   6.224   0.146
32643SOL    HW299937   9.182   6.123   0.258
32644SOL     OW99938   8.188   6.749   1.030
32644SOL    HW199939   8.125   6.797   1.087
32644SOL    HW299940   8.228   6.823   0.982
32645SOL     OW99941   8.326   6.341   1.799
32645SOL    HW199942   8.286   6.398   1.867
32645SOL    HW299943   8.350   6.404   1.728
32646SOL     OW99944   8.139   6.595   0.638
32646SOL    HW199945   8.205   6.579   0.707
32646SOL    HW299946   8.069   6.644   0.684
32647SOL     OW99947   8.155   6.742   1.799
32647SOL    HW199948   8.196   6.826   1.827
32647SOL    HW299949   8.064   6.768   1.777
32648SOL     OW99950   7.766   7.014   1.078
32648SOL    HW199951   7.692   6.972   1.031
32648SOL    HW299952   7.815   7.061   1.007
32649SOL     OW99953   8.914   7.088   1.372
32649SOL    HW199954   8.974   7.164   1.385
32649SOL    HW299955   8.849   7.102   1.443
32650SOL     OW99956   7.894   6.008   1.520
32650SOL    HW199957   7.979   5.965   1.508
32650SOL    HW299958   7.831   5.935   1.514
32651SOL     OW99959   9.058   6.046   0.735
32651SOL    HW199960   8.970   6.061   0.698
32651SOL    HW299961   9.058   6.108   0.809
32652SOL     OW99962   7.687   7.297   0.497
32652SOL    HW199963   7.719   7.382   0.533
32652SOL    HW299964   7.726   7.298   0.408
32653SOL     OW99965   8.568   6.933   1.661
32653SOL    HW199966   8.609   6.933   1.748
32653SOL    HW299967   8.524   6.846   1.662
32654SOL     OW99968   7.692   7.003   0.524
32654SOL    HW199969   7.695   7.099   0.537
32654SOL    HW299970   7.623   6.977   0.588
32655SOL     OW99971   7.714   6.679   0.905
32655SOL    HW199972   7.717   6.600   0.961
32655SOL    HW299973   7.657   6.739   0.956
32656SOL     OW99974   8.062   7.374   1.420
32656SOL    HW199975   7.980   7.353   1.469
32656SOL    HW299976   8.081   7.465   1.451
32657SOL     OW99977   8.041   6.571   0.158
32657SOL    HW199978   8.084   6.631   0.096
32657SOL    HW299979   8.075   6.603   0.244
32658SOL     OW99980   9.063   5.699   1.503
32658SOL    HW199981   9.070   5.771   1.439
32658SOL    HW299982   9.070   5.745   1.587
32659SOL     OW99983   7.575   6.243   0.564
32659SOL    HW199984   7.536   6.156   0.584
32659SOL    HW299985   7.567   6.291   0.649
32660SOL     OW99986   9.301   7.330   0.356
32660SOL    HW199987   9.346   7.318   0.442
32660SOL    HW299988   9.326   7.421   0.333
32661SOL     OW99989   7.509   7.178   0.125
32661SOL    HW199990   7.484   7.089   0.157
32661SOL    HW299991   7.483   7.234   0.200
32662SOL     OW99992   9.138   6.498   0.625
32662SOL    HW199993   9.223   6.464   0.593
32662SOL    HW299994   9.116   6.563   0.556
32663SOL     OW99995   9.082   6.701   0.437
32663SOL    HW199996   9.154   6.730   0.380
32663SOL    HW299997   9.090   6.763   0.512
32664SOL     OW99998   7.567   6.329   1.574
32664SOL    HW199999   7.650   6.366   1.607
32664SOL    HW2    0   7.505   6.402   1.592
32665SOL     OW    1   8.033   6.992   0.744
32665SOL    HW1    2   8.002   6.899   0.751
32665SOL    HW2    3   8.021   7.007   0.648
32666SOL     OW    4   8.730   6.808   1.418
32666SOL    HW1    5   8.760   6.736   1.360
32666SOL    HW2    6   8.786   6.796   1.497
32667SOL     OW    7   8.287   5.599   0.448
32667SOL    HW1    8   8.317   5.690   0.468
32667SOL    HW2    9   8.193   5.603   0.476
32668SOL     OW   10   7.608   6.563   1.258
32668SOL    HW1   11   7.699   6.528   1.258
32668SOL    HW2   12   7.555   6.489   1.225
32669SOL     OW   13   8.990   6.561   0.210
32669SOL    HW1   14   8.910   6.520   0.246
32669SOL    HW2   15   9.028   6.604   0.288
32670SOL     OW   16   8.624   7.389   1.616
32670SOL    HW1   17   8.624   7.454   1.544
32670SOL    HW2   18   8.645   7.307   1.568
32671SOL     OW   19   7.787   5.811   1.789
32671SOL    HW1   20   7.830   5.892   1.817
32671SOL    HW2   21   7.695   5.829   1.817
32672SOL     OW   22   8.914   7.014   0.962
32672SOL    HW1   23   8.850   7.034   1.034
32672SOL    HW2   24   8.885   6.925   0.934
32673SOL     OW   25   9.117   7.325   0.600
32673SOL    HW1   26   9.109   7.287   0.511
32673SOL    HW2   27   9.075   7.256   0.653
32674SOL     OW   28   8.033   6.294   0.260
32674SOL    HW1   29   8.048   6.380   0.218
32674SOL    HW2   30   7.973   6.313   0.334
32675SOL     OW   31   8.712   5.918   0.909
32675SOL    HW1   32   8.624   5.886   0.936
32675SOL    HW2   33   8.770   5.880   0.978
32676SOL     OW   34   9.019   7.250   0.315
32676SOL    HW1   35   9.113   7.267   0.305
32676SOL    HW2   36   8.993   7.234   0.222
32677SOL     OW   37   8.260   6.204   1.459
32677SOL    HW1   38   8.234   6.174   1.549
32677SOL    HW2   39   8.209   6.142   1.403
32678SOL     OW   40   8.847   6.077   1.661
32678SOL    HW1   41   8.848   6.134   1.741
32678SOL    HW2   42   8.908   6.005   1.688
32679SOL     OW   43   8.424   6.475   1.579
32679SOL    HW1   44   8.461   6.391   1.544
32679SOL    HW2   45   8.373   6.508   1.501
32680SOL     OW   46   8.440   5.989   1.226
32680SOL    HW1   47   8.365   5.985   1.286
32680SOL    HW2   48   8.422   5.918   1.163
32681SOL     OW   49   8.485   6.271   0.417
32681SOL    HW1   50   8.499   6.286   0.511
32681SOL    HW2   51   8.403   6.219   0.416
32682SOL     OW   52   7.563   6.404   0.778
32682SOL    HW1   53   7.637   6.402   0.841
32682SOL    HW2   54   7.510   6.477   0.815
32683SOL     OW   55   7.555   7.427   1.568
32683SOL    HW1   56   7.564   7.404   1.663
32683SOL    HW2   57   7.460   7.418   1.554
32684SOL     OW   58   8.340   5.964   0.213
32684SOL    HW1   59   8.388   6.014   0.144
32684SOL    HW2   60   8.351   5.872   0.183
32685SOL     OW   61   9.163   6.172   1.838
32685SOL    HW1   62   9.131   6.249   1.787
32685SOL    HW2   63   9.194   6.114   1.766
32686SOL     OW   64   8.805   6.743   0.581
32686SOL    HW1   65   8.882   6.729   0.523
32686SOL    HW2   66   8.751   6.801   0.525
32687SOL     OW   67   7.998   5.782   0.898
32687SOL    HW1   68   8.005   5.806   0.993
32687SOL    HW2   69   7.998   5.868   0.853
32688SOL     OW   70   8.446   7.019   0.491
32688SOL    HW1   71   8.411   7.089   0.432
32688SOL    HW2   72   8.451   7.065   0.576
32689SOL     OW   73   7.792   7.394   0.855
32689SOL    HW1   74   7.835   7.307   0.864
32689SOL    HW2   75   7.867   7.453   0.870
32690SOL     OW   76   9.268   6.633   0.890
32690SOL    HW1   77   9.214   6.616   0.812
32690SOL    HW2   78   9.203   6.624   0.962
32691SOL     OW   79   8.673   7.137   1.498
32691SOL    HW1   80   8.646   7.074   1.567
32691SOL    HW2   81   8.627   7.100   1.421
32692SOL     OW   82   7.768   6.551   0.276
32692SOL    HW1   83   7.854   6.546   0.231
32692SOL    HW2   84   7.730   6.464   0.257
32693SOL     OW   85   8.924   6.339   0.709
32693SOL    HW1   86   8.920   6.310   0.801
32693SOL    HW2   87   9.006   6.392   0.706
32694SOL     OW   88   7.915   6.860   1.727
32694SOL    HW1   89   7.873   6.861   1.638
32694SOL    HW2   90   7.835   6.858   1.783
32695SOL     OW   91   8.539   7.350   0.209
32695SOL    HW1   92   8.493   7.293   0.272
32695SOL    HW2   93   8.575   7.286   0.144
32696SOL     OW   94   7.620   5.878   1.499
32696SOL    HW1   95   7.547   5.937   1.526
32696SOL    HW2   96   7.616   5.810   1.568
32697SOL     OW   97   9.071   6.942   0.096
32697SOL    HW1   98   9.037   7.025   0.060
32697SOL    HW2   99   9.019   6.874   0.049
32698SOL     OW  100   7.902   7.332   0.306
32698SOL    HW1  101   7.944   7.373   0.383
32698SOL    HW2  102   7.977   7.324   0.245
32699SOL     OW  103   8.848   5.696   0.448
32699SOL    HW1  104   8.853   5.649   0.363
32699SOL    HW2  105   8.942   5.717   0.466
32700SOL     OW  106   7.697   7.383   1.231
32700SOL    HW1  107   7.746   7.310   1.272
32700SOL    HW2  108   7.682   7.350   1.142
32701SOL     OW  109   8.406   7.282   0.875
32701SOL    HW1  110   8.490   7.236   0.890
32701SOL    HW2  111   8.362   7.222   0.811
32702SOL     OW  112   7.848   6.265   0.472
32702SOL    HW1  113   7.861   6.169   0.480
32702SOL    HW2  114   7.758   6.274   0.509
32703SOL     OW  115   8.985   5.856   1.729
32703SOL    HW1  116   8.982   5.850   1.827
32703SOL    HW2  117   8.927   5.783   1.704
32704SOL     OW  118   8.074   5.674   0.109
32704SOL    HW1  119   8.166   5.675   0.136
32704SOL    HW2  120   8.079   5.699   0.016
32705SOL     OW  121   8.222   5.848   1.739
32705SOL    HW1  122   8.300   5.790   1.750
32705SOL    HW2  123   8.168   5.827   1.816
32706SOL     OW  124   8.331   7.135   1.187
32706SOL    HW1  125   8.323   7.105   1.095
32706SOL    HW2  126   8.380   7.062   1.229
32707SOL     OW  127   8.786   6.169   1.416
32707SOL    HW1  128   8.820   6.141   1.503
32707SOL    HW2  129   8.826   6.257   1.404
32708SOL     OW  130   8.255   6.994   0.929
32708SOL    HW1  131   8.342   6.983   0.886
32708SOL    HW2  132   8.194   6.996   0.853
32709SOL     OW  133   8.393   6.099   0.909
32709SOL    HW1  134   8.375   6.084   0.813
32709SOL    HW2  135   8.420   6.011   0.939
32710SOL     OW  136   8.023   5.628   0.495
32710SOL    HW1  137   7.948   5.640   0.558
32710SOL    HW2  138   8.008   5.705   0.437
32711SOL     OW  139   8.891   6.750   0.024
32711SOL    HW1  140   8.919   6.684   0.091
32711SOL    HW2  141   8.808   6.784   0.059
32712SOL     OW  142   7.727   5.658   0.215
32712SOL    HW1  143   7.762   5.702   0.135
32712SOL    HW2  144   7.797   5.593   0.234
32713SOL     OW  145   8.387   5.844   0.478
32713SOL    HW1  146   8.362   5.890   0.397
32713SOL    HW2  147   8.484   5.857   0.477
32714SOL     OW  148   8.535   6.259   1.462
32714SOL    HW1  149   8.477   6.182   1.470
32714SOL    HW2  150   8.625   6.222   1.455
32715SOL     OW  151   8.682   7.175   0.797
32715SOL    HW1  152   8.689   7.239   0.724
32715SOL    HW2  153   8.759   7.197   0.851
32716SOL     OW  154   7.927   6.737   0.735
32716SOL    HW1  155   7.854   6.713   0.796
32716SOL    HW2  156   7.884   6.719   0.649
32717SOL     OW  157   8.721   7.395   0.622
32717SOL    HW1  158   8.764   7.462   0.565
32717SOL    HW2  159   8.675   7.451   0.687
32718SOL     OW  160   8.492   6.127   0.042
32718SOL    HW1  161   8.464   6.218   0.026
32718SOL    HW2  162   8.582   6.137   0.075
32719SOL     OW  163   7.498   6.152   1.391
32719SOL    HW1  164   7.592   6.138   1.366
32719SOL    HW2  165   7.507   6.224   1.456
32720SOL     OW  166   8.012   5.821   1.171
32720SOL    HW1  167   8.060   5.755   1.222
32720SOL    HW2  168   7.922   5.809   1.205
32721SOL     OW  169   8.337   6.036   0.655
32721SOL    HW1  170   8.283   6.090   0.596
32721SOL    HW2  171   8.349   5.955   0.601
32722SOL     OW  172   8.462   5.663   0.773
32722SOL    HW1  173   8.417   5.659   0.688
32722SOL    HW2  174   8.437   5.578   0.815
32723SOL     OW  175   8.865   6.759   0.882
32723SOL    HW1  176   8.815   6.679   0.908
32723SOL    HW2  177   8.866   6.751   0.786
32724SOL     OW  178   8.927   6.161   0.976
32724SOL    HW1  179   8.865   6.088   0.991
32724SOL    HW2  180   8.984   6.159   1.055
32725SOL     OW  181   9.308   6.420   0.381
32725SOL    HW1  182   9.357   6.363   0.443
32725SOL    HW2  183   9.278   6.354   0.316
32726SOL     OW  184   7.934   7.043   0.140
32726SOL    HW1  185   7.863   7.011   0.198
32726SOL    HW2  186   7.929   6.980   0.066
32727SOL     OW  187   9.121   6.865   0.650
32727SOL    HW1  188   9.216   6.875   0.664
32727SOL    HW2  189   9.083   6.950   0.677
32728SOL     OW  190   8.844   6.181   0.098
32728SOL    HW1  191   8.802   6.142   0.177
32728SOL    HW2  192   8.905   6.111   0.070
32729SOL     OW  193   7.966   5.815   0.316
32729SOL    HW1  194   7.991   5.764   0.237
32729SOL    HW2  195   7.940   5.900   0.276
32730SOL     OW  196   9.180   6.818   1.571
32730SOL    HW1  197   9.267   6.776   1.586
32730SOL    HW2  198   9.203   6.911   1.583
32731SOL     OW  199   8.512   6.954   1.340
32731SOL    HW1  200   8.434   6.919   1.387
32731SOL    HW2  201   8.583   6.899   1.379
32732SOL     OW  202   9.058   7.194   1.643
32732SOL    HW1  203   9.067   7.230   1.553
32732SOL    HW2  204   9.137   7.138   1.651
32733SOL     OW  205   8.574   6.819   1.095
32733SOL    HW1  206   8.505   6.842   1.158
32733SOL    HW2  207   8.540   6.853   1.011
32734SOL     OW  208   9.044   6.678   1.069
32734SOL    HW1  209   9.054   6.742   1.141
32734SOL    HW2  210   8.989   6.726   1.006
32735SOL     OW  211   8.369   5.741   1.382
32735SOL    HW1  212   8.389   5.673   1.316
32735SOL    HW2  213   8.453   5.749   1.431
32736SOL     OW  214   8.443   6.697   1.739
32736SOL    HW1  215   8.351   6.716   1.764
32736SOL    HW2  216   8.434   6.621   1.678
32737SOL     OW  217   8.182   6.663   0.378
32737SOL    HW1  218   8.170   6.638   0.472
32737SOL    HW2  219   8.260   6.608   0.352
32738SOL     OW  220   7.852   6.396   1.267
32738SOL    HW1  221   7.929   6.390   1.328
32738SOL    HW2  222   7.812   6.308   1.276
32739SOL     OW  223   8.721   5.955   1.265
32739SOL    HW1  224   8.743   6.034   1.318
32739SOL    HW2  225   8.628   5.972   1.238
32740SOL     OW  226   7.525   7.152   1.346
32740SOL    HW1  227   7.523   7.244   1.316
32740SOL    HW2  228   7.621   7.132   1.345
32741SOL     OW  229   7.806   6.688   0.506
32741SOL    HW1  230   7.804   6.764   0.447
32741SOL    HW2  231   7.790   6.615   0.442
32742SOL     OW  232   7.991   6.126   0.862
32742SOL    HW1  233   8.015   6.192   0.793
32742SOL    HW2  234   8.060   6.143   0.928
32743SOL     OW  235   8.675   6.912   0.400
32743SOL    HW1  236   8.727   6.990   0.425
32743SOL    HW2  237   8.585   6.940   0.428
32744SOL     OW  238   8.742   7.054   1.161
32744SOL    HW1  239   8.798   7.048   1.241
32744SOL    HW2  240   8.680   6.980   1.173
32745SOL     OW  241   9.029   6.214   0.470
32745SOL    HW1  242   8.982   6.249   0.548
32745SOL    HW2  243   9.043   6.293   0.418
32746SOL     OW  244   7.785   7.107   1.321
32746SOL    HW1  245   7.776   7.067   1.232
32746SOL    HW2  246   7.880   7.129   1.321
32747SOL     OW  247   7.901   6.310   1.638
32747SOL    HW1  248   7.951   6.355   1.567
32747SOL    HW2  249   7.923   6.218   1.622
32748SOL     OW  250   9.078   6.366   1.684
32748SOL    HW1  251   8.989   6.404   1.684
32748SOL    HW2  252   9.116   6.406   1.603
32749SOL     OW  253   8.447   5.698   1.774
32749SOL    HW1  254   8.507   5.764   1.739
32749SOL    HW2  255   8.493   5.617   1.747
32750SOL     OW  256   7.957   5.606   1.760
32750SOL    HW1  257   7.919   5.549   1.692
32750SOL    HW2  258   7.891   5.678   1.764
32751SOL     OW  259   8.046   6.485   1.050
32751SOL    HW1  260   8.069   6.579   1.046
32751SOL    HW2  261   7.980   6.480   1.121
32752SOL     OW  262   8.796   6.450   1.008
32752SOL    HW1  263   8.710   6.408   0.995
32752SOL    HW2  264   8.852   6.374   1.029
32753SOL     OW  265   8.683   6.090   0.288
32753SOL    HW1  266   8.680   6.014   0.349
32753SOL    HW2  267   8.621   6.151   0.331
32754SOL     OW  268   7.748   5.787   1.261
32754SOL    HW1  269   7.696   5.818   1.337
32754SOL    HW2  270   7.718   5.694   1.254
32755SOL     OW  271   7.483   6.889   1.284
32755SOL    HW1  272   7.509   6.830   1.358
32755SOL    HW2  273   7.488   6.977   1.324
32756SOL     OW  274   8.174   6.219   1.058
32756SOL    HW1  275   8.257   6.198   1.013
32756SOL    HW2  276   8.155   6.312   1.036
32757SOL     OW  277   9.220   6.545   1.844
32757SOL    HW1  278   9.172   6.485   1.785
32757SOL    HW2  279   9.155   6.559   1.915
32758SOL     OW  280   7.789   5.660   0.618
32758SOL    HW1  281   7.745   5.744   0.641
32758SOL    HW2  282   7.777   5.610   0.700
32759SOL     OW  283   9.068   5.976   0.355
32759SOL    HW1  284   9.095   5.912   0.423
32759SOL    HW2  285   9.046   6.056   0.409
32760SOL     OW  286   8.498   6.340   0.984
32760SOL    HW1  287   8.470   6.346   1.078
32760SOL    HW2  288   8.475   6.247   0.963
32761SOL     OW  289   8.426   7.159   1.705
32761SOL    HW1  290   8.417   7.209   1.621
32761SOL    HW2  291   8.451   7.071   1.672
32762SOL     OW  292   9.299   7.073   1.604
32762SOL    HW1  293   9.325   7.101   1.514
32762SOL    HW2  294   9.377   7.100   1.656
32763SOL     OW  295   7.795   6.494   1.796
32763SOL    HW1  296   7.817   6.506   1.889
32763SOL    HW2  297   7.848   6.416   1.769
32764SOL     OW  298   8.964   5.868   0.109
32764SOL    HW1  299   8.904   5.803   0.146
32764SOL    HW2  300   9.012   5.900   0.187
32765SOL     OW  301   8.733   6.426   0.031
32765SOL    HW1  302   8.775   6.339   0.047
32765SOL    HW2  303   8.768   6.450  11.046
32766SOL     OW  304   8.509   6.946   0.849
32766SOL    HW1  305   8.518   6.868   0.791
32766SOL    HW2  306   8.579   7.006   0.818
32767SOL     OW  307   7.747   6.409   0.987
32767SOL    HW1  308   7.841   6.415   0.967
32767SOL    HW2  309   7.739   6.317   1.016
32768SOL     OW  310   7.763   6.126   1.003
32768SOL    HW1  311   7.739   6.031   0.997
32768SOL    HW2  312   7.839   6.129   0.941
32769SOL     OW  313   8.603   5.962   1.695
32769SOL    HW1  314   8.556   6.015   1.762
32769SOL    HW2  315   8.691   6.004   1.693
32770SOL     OW  316   8.615   5.787   1.481
32770SOL    HW1  317   8.616   5.853   1.553
32770SOL    HW2  318   8.660   5.834   1.409
32771SOL     OW  319   7.439   6.930   0.218
32771SOL    HW1  320   7.351   6.933   0.173
32771SOL    HW2  321   7.453   6.833   0.225
32772SOL     OW  322   7.543   7.363   0.939
32772SOL    HW1  323   7.512   7.292   0.879
32772SOL    HW2  324   7.635   7.376   0.908
32773SOL     OW  325   7.926   7.163   0.917
32773SOL    HW1  326   8.000   7.227   0.927
32773SOL    HW2  327   7.962   7.099   0.853
32774SOL     OW  328   8.414   6.351   1.240
32774SOL    HW1  329   8.468   6.319   1.314
32774SOL    HW2  330   8.326   6.326   1.269
32775SOL     OW  331   7.475   6.099   1.106
32775SOL    HW1  332   7.560   6.100   1.061
32775SOL    HW2  333   7.498   6.131   1.195
32776SOL     OW  334   7.654   6.103   1.696
32776SOL    HW1  335   7.717   6.071   1.630
32776SOL    HW2  336   7.610   6.177   1.650
32777SOL     OW  337   8.846   6.507   1.646
32777SOL    HW1  338   8.868   6.602   1.647
32777SOL    HW2  339   8.836   6.488   1.551
32778SOL     OW  340   8.244   6.145   0.382
32778SOL    HW1  341   8.274   6.079   0.316
32778SOL    HW2  342   8.172   6.189   0.335
32779SOL     OW  343   9.087   6.209   1.203
32779SOL    HW1  344   9.064   6.145   1.272
32779SOL    HW2  345   9.173   6.174   1.171
32780SOL     OW  346   7.698   7.132   1.717
32780SOL    HW1  347   7.682   7.194   1.790
32780SOL    HW2  348   7.704   7.047   1.766
32781SOL     OW  349   8.120   6.065   1.271
32781SOL    HW1  350   8.084   5.985   1.230
32781SOL    HW2  351   8.134   6.124   1.194
32782SOL     OW  352   8.383   7.283   1.473
32782SOL    HW1  353   8.364   7.253   1.383
32782SOL    HW2  354   8.373   7.380   1.466
32783SOL     OW  355   7.902   6.056   0.203
32783SOL    HW1  356   7.963   6.132   0.209
32783SOL    HW2  357   7.817   6.100   0.212
32784SOL     OW  358   7.560   6.718   1.474
32784SOL    HW1  359   7.567   6.661   1.554
32784SOL    HW2  360   7.574   6.654   1.401
32785SOL     OW  361   8.768   6.626   1.223
32785SOL    HW1  362   8.784   6.571   1.144
32785SOL    HW2  363   8.698   6.686   1.191
32786SOL     OW  364   8.759   6.447   0.308
32786SOL    HW1  365   8.676   6.412   0.341
32786SOL    HW2  366   8.750   6.434   0.212
32787SOL     OW  367   9.202   7.334   1.127
32787SOL    HW1  368   9.280   7.347   1.068
32787SOL    HW2  369   9.187   7.238   1.118
32788SOL     OW  370   8.689   7.316   1.105
32788SOL    HW1  371   8.778   7.333   1.070
32788SOL    HW2  372   8.693   7.220   1.127
32789SOL     OW  373   7.544   6.844   1.033
32789SOL    HW1  374   7.515   6.858   1.126
32789SOL    HW2  375   7.469   6.794   0.997
32790SOL     OW  376   8.142   7.228   1.741
32790SOL    HW1  377   8.114   7.316   1.711
32790SOL    HW2  378   8.235   7.226   1.715
32791SOL     OW  379   8.363   5.709   0.146
32791SOL    HW1  380   8.416   5.668   0.076
32791SOL    HW2  381   8.385   5.649   0.219
32792SOL     OW  382   9.124   5.727   0.505
32792SOL    HW1  383   9.202   5.716   0.448
32792SOL    HW2  384   9.128   5.647   0.561
32793SOL     OW  385   8.812   7.148   0.477
32793SOL    HW1  386   8.879   7.166   0.408
32793SOL    HW2  387   8.778   7.237   0.494
32794SOL     OW  388   7.591   7.380   1.834
32794SOL    HW1  389   7.554   7.303   1.882
32794SOL    HW2  390   7.640   7.424   1.906
32795SOL     OW  391   8.699   6.505   0.650
32795SOL    HW1  392   8.781   6.453   0.660
32795SOL    HW2  393   8.734   6.589   0.615
32796SOL     OW  394   8.257   6.851   1.424
32796SOL    HW1  395   8.226   6.898   1.505
32796SOL    HW2  396   8.181   6.864   1.365
32797SOL     OW  397   8.136   7.210   0.170
32797SOL    HW1  398   8.148   7.219   0.075
32797SOL    HW2  399   8.064   7.143   0.174
32798SOL     OW  400   9.075   7.302   1.389
32798SOL    HW1  401   9.117   7.319   1.304
32798SOL    HW2  402   9.055   7.392   1.422
32799SOL     OW  403   9.289   5.750   0.979
32799SOL    HW1  404   9.316   5.665   0.940
32799SOL    HW2  405   9.207   5.772   0.930
32800SOL     OW  406   7.691   5.899   0.718
32800SOL    HW1  407   7.609   5.947   0.695
32800SOL    HW2  408   7.700   5.918   0.813
32801SOL     OW  409   8.670   7.184   0.039
32801SOL    HW1  410   8.662   7.087   0.048
32801SOL    HW2  411   8.612   7.202  11.064
32802SOL     OW  412   8.267   6.585   1.387
32802SOL    HW1  413   8.291   6.591   1.294
32802SOL    HW2  414   8.265   6.679   1.414
32803SOL     OW  415   8.378   6.516   0.294
32803SOL    HW1  416   8.429   6.538   0.214
32803SOL    HW2  417   8.405   6.425   0.312
32804SOL     OW  418   8.955   7.204   0.032
32804SOL    HW1  419   8.858   7.199   0.037
32804SOL    HW2  420   8.974   7.194  11.039
32805SOL     OW  421   7.795   6.860   1.491
32805SOL    HW1  422   7.780   6.930   1.426
32805SOL    HW2  423   7.714   6.806   1.485
32806SOL     OW  424   9.049   6.892   1.267
32806SOL    HW1  425   9.088   6.857   1.348
32806SOL    HW2  426   8.986   6.959   1.304
32807SOL     OW  427   8.495   6.705   0.725
32807SOL    HW1  428   8.419   6.651   0.751
32807SOL    HW2  429   8.554   6.638   0.688
32808SOL     OW  430   8.478   5.815   0.990
32808SOL    HW1  431   8.465   5.770   0.904
32808SOL    HW2  432   8.479   5.737   1.050
32809SOL     OW  433   8.061   7.076   0.485
32809SOL    HW1  434   8.111   7.028   0.416
32809SOL    HW2  435   7.989   7.115   0.435
32810SOL     OW  436   9.157   5.953   1.382
32810SOL    HW1  437   9.219   6.029   1.380
32810SOL    HW2  438   9.205   5.888   1.327
32811SOL     OW  439   7.699   6.946   0.264
32811SOL    HW1  440   7.604   6.942   0.238
32811SOL    HW2  441   7.691   6.970   0.359
32812SOL     OW  442   7.567   6.588   1.703
32812SOL    HW1  443   7.497   6.572   1.770
32812SOL    HW2  444   7.649   6.560   1.750
32813SOL     OW  445   8.127   5.768   1.488
32813SOL    HW1  446   8.215   5.750   1.448
32813SOL    HW2  447   8.152   5.800   1.576
32814SOL     OW  448   7.568   5.961   0.016
32814SOL    HW1  449   7.494   5.907  11.085
32814SOL    HW2  450   7.549   6.046  11.077
32815SOL     OW  451   8.895   6.441   1.379
32815SOL    HW1  452   8.856   6.507   1.319
32815SOL    HW2  453   8.988   6.466   1.379
32816SOL     OW  454   7.497   5.753   0.323
32816SOL    HW1  455   7.498   5.834   0.272
32816SOL    HW2  456   7.587   5.718   0.303
32817SOL     OW  457   8.637   6.914   0.115
32817SOL    HW1  458   8.541   6.916   0.101
32817SOL    HW2  459   8.644   6.898   0.211
32818SOL     OW  460   8.067   6.387   1.423
32818SOL    HW1  461   8.121   6.468   1.421
32818SOL    HW2  462   8.137   6.321   1.441
32819SOL     OW  463   8.952   7.349   0.959
32819SOL    HW1  464   8.984   7.393   0.879
32819SOL    HW2  465   9.034   7.340   1.010
32820SOL     OW  466   8.172   6.122   1.689
32820SOL    HW1  467   8.210   6.183   1.754
32820SOL    HW2  468   8.189   6.033   1.725
32821SOL     OW  469   8.913   6.770   1.624
32821SOL    HW1  470   8.900   6.776   1.721
32821SOL    HW2  471   9.009   6.790   1.616
32822SOL     OW  472   7.823   7.321   1.560
32822SOL    HW1  473   7.736   7.361   1.545
32822SOL    HW2  474   7.798   7.237   1.602
32823SOL     OW  475   9.162   6.470   1.225
32823SOL    HW1  476   9.138   6.377   1.208
32823SOL    HW2  477   9.108   6.520   1.160
32824SOL     OW  478   8.662   5.905   0.481
32824SOL    HW1  479   8.726   5.832   0.478
32824SOL    HW2  480   8.697   5.961   0.554
32825SOL     OW  481   8.032   6.329   0.677
32825SOL    HW1  482   8.069   6.416   0.654
32825SOL    HW2  483   7.969   6.312   0.605
32826SOL     OW  484   9.216   5.965   1.646
32826SOL    HW1  485   9.192   5.971   1.552
32826SOL    HW2  486   9.139   5.917   1.682
32827SOL     OW  487   9.169   6.525   1.486
32827SOL    HW1  488   9.184   6.621   1.489
32827SOL    HW2  489   9.193   6.504   1.393
32828SOL     OW  490   8.353   6.946   0.050
32828SOL    HW1  491   8.267   6.954   0.093
32828SOL    HW2  492   8.356   7.023  11.091
32829SOL     OW  493   8.092   7.386   0.908
32829SOL    HW1  494   8.086   7.482   0.898
32829SOL    HW2  495   8.187   7.370   0.919
32830SOL     OW  496   8.324   6.536   0.850
32830SOL    HW1  497   8.375   6.468   0.897
32830SOL    HW2  498   8.301   6.596   0.922
32831SOL     OW  499   8.494   6.570   0.062
32831SOL    HW1  500   8.504   6.646   0.003
32831SOL    HW2  501   8.582   6.529   0.057
32832SOL     OW  502   9.300   7.137   0.824
32832SOL    HW1  503   9.205   7.131   0.804
32832SOL    HW2  504   9.311   7.067   0.890
32833SOL     OW  505   7.683   6.907   1.865
32833SOL    HW1  506   7.621   6.834   1.855
32833SOL    HW2  507   7.680   6.920   1.962
32834SOL     OW  508   7.537   6.828   0.663
32834SOL    HW1  509   7.551   6.779   0.745
32834SOL    HW2  510   7.608   6.793   0.607
32835SOL     OW  511   8.125   6.986   1.619
32835SOL    HW1  512   8.051   6.930   1.650
32835SOL    HW2  513   8.109   7.069   1.668
32836SOL     OW  514   9.249   5.750   1.238
32836SOL    HW1  515   9.294   5.666   1.252
32836SOL    HW2  516   9.261   5.761   1.141
32837SOL     OW  517   7.881   5.996   0.520
32837SOL    HW1  518   7.911   5.921   0.468
32837SOL    HW2  519   7.834   5.956   0.595
32838SOL     OW  520   9.166   7.078   1.082
32838SOL    HW1  521   9.079   7.053   1.045
32838SOL    HW2  522   9.169   7.018   1.159
32839SOL     OW  523   7.760   6.127   1.282
32839SOL    HW1  524   7.833   6.092   1.336
32839SOL    HW2  525   7.783   6.098   1.192
32840SOL     OW  526   8.263   7.159   0.671
32840SOL    HW1  527   8.251   7.149   0.576
32840SOL    HW2  528   8.178   7.126   0.703
32841SOL     OW  529   8.882   5.829   1.084
32841SOL    HW1  530   8.934   5.762   1.131
32841SOL    HW2  531   8.831   5.869   1.157
32842SOL     OW  532   8.468   5.589   1.148
32842SOL    HW1  533   8.410   5.512   1.136
32842SOL    HW2  534   8.557   5.548   1.147
32843SOL     OW  535   8.213   6.925   0.317
32843SOL    HW1  536   8.196   6.830   0.335
32843SOL    HW2  537   8.308   6.930   0.333
32844SOL     OW  538   8.048   7.150   1.265
32844SOL    HW1  539   8.056   7.230   1.320
32844SOL    HW2  540   8.139   7.142   1.233
32845SOL     OW  541   8.770   5.613   0.167
32845SOL    HW1  542   8.789   5.575   0.080
32845SOL    HW2  543   8.679   5.582   0.183
32846SOL     OW  544   8.759   6.066   0.696
32846SOL    HW1  545   8.696   6.140   0.702
32846SOL    HW2  546   8.740   6.017   0.779
32847SOL     OW  547   9.051   5.794   0.858
32847SOL    HW1  548   8.974   5.807   0.916
32847SOL    HW2  549   9.047   5.872   0.800
32848SOL     OW  550   7.502   6.671   0.269
32848SOL    HW1  551   7.599   6.663   0.274
32848SOL    HW2  552   7.475   6.582   0.295
32849SOL     OW  553   8.343   7.222   0.356
32849SOL    HW1  554   8.266   7.207   0.297
32849SOL    HW2  555   8.320   7.310   0.396
32850SOL     OW  556   7.669   6.184   1.974
32850SOL    HW1  557   7.598   6.242   2.003
32850SOL    HW2  558   7.678   6.201   1.879
32851SOL     OW  559   7.684   5.855   2.862
32851SOL    HW1  560   7.700   5.839   2.957
32851SOL    HW2  561   7.592   5.823   2.851
32852SOL     OW  562   7.458   5.989   2.496
32852SOL    HW1  563   7.373   6.012   2.539
32852SOL    HW2  564   7.434   5.910   2.447
32853SOL     OW  565   8.016   6.872   3.056
32853SOL    HW1  566   7.926   6.870   3.019
32853SOL    HW2  567   8.024   6.964   3.085
32854SOL     OW  568   8.968   7.129   2.567
32854SOL    HW1  569   8.945   7.089   2.653
32854SOL    HW2  570   8.893   7.113   2.508
32855SOL     OW  571   8.580   6.270   2.571
32855SOL    HW1  572   8.609   6.359   2.542
32855SOL    HW2  573   8.546   6.288   2.660
32856SOL     OW  574   9.229   6.190   2.093
32856SOL    HW1  575   9.203   6.180   1.999
32856SOL    HW2  576   9.170   6.128   2.136
32857SOL     OW  577   8.210   6.758   2.907
32857SOL    HW1  578   8.137   6.797   2.958
32857SOL    HW2  579   8.232   6.831   2.847
32858SOL     OW  580   8.330   6.333   3.660
32858SOL    HW1  581   8.302   6.399   3.725
32858SOL    HW2  582   8.360   6.389   3.585
32859SOL     OW  583   8.134   6.610   2.523
32859SOL    HW1  584   8.196   6.582   2.593
32859SOL    HW2  585   8.066   6.659   2.573
32860SOL     OW  586   8.139   6.740   3.665
32860SOL    HW1  587   8.181   6.825   3.684
32860SOL    HW2  588   8.050   6.766   3.635
32861SOL     OW  589   7.766   7.016   2.934
32861SOL    HW1  590   7.699   6.961   2.888
32861SOL    HW2  591   7.810   7.066   2.863
32862SOL     OW  592   8.918   7.082   3.233
32862SOL    HW1  593   8.976   7.162   3.239
32862SOL    HW2  594   8.854   7.098   3.304
32863SOL     OW  595   7.893   5.993   3.362
32863SOL    HW1  596   7.968   5.934   3.369
32863SOL    HW2  597   7.817   5.934   3.371
32864SOL     OW  598   9.077   6.043   2.603
32864SOL    HW1  599   9.013   6.069   2.535
32864SOL    HW2  600   9.048   6.096   2.678
32865SOL     OW  601   7.667   7.304   2.339
32865SOL    HW1  602   7.698   7.383   2.389
32865SOL    HW2  603   7.729   7.301   2.265
32866SOL     OW  604   8.572   6.935   3.516
32866SOL    HW1  605   8.618   6.939   3.600
32866SOL    HW2  606   8.527   6.849   3.524
32867SOL     OW  607   7.712   7.032   2.394
32867SOL    HW1  608   7.695   7.127   2.401
32867SOL    HW2  609   7.643   6.995   2.450
32868SOL     OW  610   7.723   6.671   2.766
32868SOL    HW1  611   7.718   6.594   2.825
32868SOL    HW2  612   7.663   6.733   2.811
32869SOL     OW  613   8.052   7.384   3.263
32869SOL    HW1  614   7.984   7.360   3.329
32869SOL    HW2  615   8.081   7.472   3.294
32870SOL     OW  616   8.093   6.550   1.977
32870SOL    HW1  617   8.113   6.615   1.907
32870SOL    HW2  618   8.062   6.607   2.049
32871SOL     OW  619   9.060   5.701   3.367
32871SOL    HW1  620   9.057   5.780   3.311
32871SOL    HW2  621   9.062   5.739   3.455
32872SOL     OW  622   7.556   6.244   2.428
32872SOL    HW1  623   7.531   6.151   2.445
32872SOL    HW2  624   7.553   6.284   2.517
32873SOL     OW  625   9.292   7.319   2.209
32873SOL    HW1  626   9.366   7.302   2.272
32873SOL    HW2  627   9.306   7.413   2.191
32874SOL     OW  628   7.509   7.171   1.980
32874SOL    HW1  629   7.494   7.077   1.998
32874SOL    HW2  630   7.475   7.214   2.061
32875SOL     OW  631   9.127   6.486   2.495
32875SOL    HW1  632   9.210   6.455   2.456
32875SOL    HW2  633   9.099   6.553   2.431
32876SOL     OW  634   9.092   6.712   2.312
32876SOL    HW1  635   9.182   6.705   2.277
32876SOL    HW2  636   9.102   6.783   2.378
32877SOL     OW  637   7.559   6.324   3.448
32877SOL    HW1  638   7.647   6.357   3.473
32877SOL    HW2  639   7.505   6.402   3.465
32878SOL     OW  640   8.039   7.004   2.619
32878SOL    HW1  641   7.999   6.914   2.629
32878SOL    HW2  642   8.030   7.016   2.522
32879SOL     OW  643   8.735   6.816   3.281
32879SOL    HW1  644   8.768   6.744   3.225
32879SOL    HW2  645   8.784   6.802   3.364
32880SOL     OW  646   8.279   5.582   2.369
32880SOL    HW1  647   8.310   5.674   2.352
32880SOL    HW2  648   8.182   5.595   2.368
32881SOL     OW  649   7.628   6.568   3.117
32881SOL    HW1  650   7.718   6.535   3.105
32881SOL    HW2  651   7.574   6.497   3.079
32882SOL     OW  652   8.978   6.561   2.055
32882SOL    HW1  653   8.898   6.513   2.085
32882SOL    HW2  654   9.014   6.594   2.139
32883SOL     OW  655   8.618   7.397   3.479
32883SOL    HW1  656   8.625   7.462   3.407
32883SOL    HW2  657   8.640   7.314   3.432
32884SOL     OW  658   7.785   5.815   3.648
32884SOL    HW1  659   7.831   5.887   3.692
32884SOL    HW2  660   7.707   5.804   3.703
32885SOL     OW  661   8.914   7.016   2.818
32885SOL    HW1  662   8.853   7.033   2.892
32885SOL    HW2  663   8.890   6.924   2.794
32886SOL     OW  664   9.116   7.315   2.458
32886SOL    HW1  665   9.102   7.273   2.372
32886SOL    HW2  666   9.080   7.246   2.518
32887SOL     OW  667   8.007   6.313   2.117
32887SOL    HW1  668   8.041   6.392   2.073
32887SOL    HW2  669   7.924   6.348   2.152
32888SOL     OW  670   8.717   5.913   2.770
32888SOL    HW1  671   8.628   5.886   2.797
32888SOL    HW2  672   8.772   5.882   2.845
32889SOL     OW  673   9.021   7.236   2.172
32889SOL    HW1  674   9.115   7.258   2.178
32889SOL    HW2  675   9.011   7.229   2.076
32890SOL     OW  676   8.257   6.209   3.324
32890SOL    HW1  677   8.232   6.168   3.410
32890SOL    HW2  678   8.209   6.151   3.261
32891SOL     OW  679   8.852   6.071   3.534
32891SOL    HW1  680   8.853   6.126   3.615
32891SOL    HW2  681   8.904   5.993   3.561
32892SOL     OW  682   8.420   6.473   3.447
32892SOL    HW1  683   8.460   6.393   3.407
32892SOL    HW2  684   8.369   6.508   3.372
32893SOL     OW  685   8.415   5.968   3.090
32893SOL    HW1  686   8.327   5.996   3.118
32893SOL    HW2  687   8.402   5.931   3.002
32894SOL     OW  688   8.497   6.259   2.277
32894SOL    HW1  689   8.505   6.278   2.372
32894SOL    HW2  690   8.406   6.222   2.272
32895SOL     OW  691   7.547   6.393   2.658
32895SOL    HW1  692   7.623   6.396   2.719
32895SOL    HW2  693   7.508   6.481   2.671
32896SOL     OW  694   7.560   7.448   3.433
32896SOL    HW1  695   7.573   7.421   3.527
32896SOL    HW2  696   7.479   7.401   3.411
32897SOL     OW  697   8.323   5.948   2.070
32897SOL    HW1  698   8.353   6.011   2.002
32897SOL    HW2  699   8.350   5.865   2.031
32898SOL     OW  700   9.163   6.177   3.702
32898SOL    HW1  701   9.124   6.253   3.654
32898SOL    HW2  702   9.191   6.121   3.628
32899SOL     OW  703   8.817   6.734   2.421
32899SOL    HW1  704   8.902   6.728   2.376
32899SOL    HW2  705   8.772   6.801   2.367
32900SOL     OW  706   8.004   5.783   2.740
32900SOL    HW1  707   8.015   5.801   2.835
32900SOL    HW2  708   7.992   5.871   2.701
32901SOL     OW  709   8.445   7.025   2.351
32901SOL    HW1  710   8.403   7.084   2.286
32901SOL    HW2  711   8.439   7.075   2.433
32902SOL     OW  712   7.792   7.393   2.713
32902SOL    HW1  713   7.833   7.306   2.729
32902SOL    HW2  714   7.864   7.453   2.738
32903SOL     OW  715   9.245   6.630   2.728
32903SOL    HW1  716   9.193   6.620   2.647
32903SOL    HW2  717   9.177   6.629   2.797
32904SOL     OW  718   8.667   7.148   3.360
32904SOL    HW1  719   8.644   7.080   3.426
32904SOL    HW2  720   8.630   7.109   3.280
32905SOL     OW  721   8.921   6.333   2.571
32905SOL    HW1  722   8.922   6.309   2.664
32905SOL    HW2  723   9.003   6.386   2.562
32906SOL     OW  724   7.902   6.857   3.583
32906SOL    HW1  725   7.862   6.862   3.493
32906SOL    HW2  726   7.822   6.862   3.638
32907SOL     OW  727   8.548   7.352   2.102
32907SOL    HW1  728   8.479   7.301   2.148
32907SOL    HW2  729   8.565   7.299   2.022
32908SOL     OW  730   7.620   5.880   3.358
32908SOL    HW1  731   7.543   5.928   3.393
32908SOL    HW2  732   7.618   5.800   3.411
32909SOL     OW  733   9.066   6.948   1.955
32909SOL    HW1  734   9.024   7.031   1.930
32909SOL    HW2  735   9.005   6.881   1.921
32910SOL     OW  736   7.907   7.319   2.184
32910SOL    HW1  737   7.957   7.369   2.252
32910SOL    HW2  738   7.977   7.282   2.128
32911SOL     OW  739   8.819   5.686   2.300
32911SOL    HW1  740   8.818   5.650   2.210
32911SOL    HW2  741   8.913   5.703   2.313
32912SOL     OW  742   7.697   7.383   3.093
32912SOL    HW1  743   7.752   7.312   3.130
32912SOL    HW2  744   7.681   7.352   3.003
32913SOL     OW  745   8.406   7.286   2.747
32913SOL    HW1  746   8.491   7.240   2.750
32913SOL    HW2  747   8.360   7.235   2.677
32914SOL     OW  748   7.842   6.279   2.365
32914SOL    HW1  749   7.855   6.181   2.371
32914SOL    HW2  750   7.746   6.285   2.360
32915SOL     OW  751   8.980   5.836   3.603
32915SOL    HW1  752   8.977   5.842   3.702
32915SOL    HW2  753   8.925   5.757   3.589
32916SOL     OW  754   8.080   5.723   1.963
32916SOL    HW1  755   8.155   5.666   1.981
32916SOL    HW2  756   8.032   5.672   1.894
32917SOL     OW  757   8.219   5.845   3.603
32917SOL    HW1  758   8.297   5.785   3.604
32917SOL    HW2  759   8.166   5.813   3.678
32918SOL     OW  760   8.333   7.119   3.062
32918SOL    HW1  761   8.333   7.097   2.967
32918SOL    HW2  762   8.399   7.058   3.099
32919SOL     OW  763   8.779   6.181   3.294
32919SOL    HW1  764   8.820   6.147   3.377
32919SOL    HW2  765   8.831   6.262   3.277
32920SOL     OW  766   8.252   6.996   2.784
32920SOL    HW1  767   8.337   6.981   2.738
32920SOL    HW2  768   8.187   6.994   2.711
32921SOL     OW  769   8.383   6.115   2.761
32921SOL    HW1  770   8.358   6.103   2.666
32921SOL    HW2  771   8.407   6.025   2.785
32922SOL     OW  772   8.011   5.631   2.362
32922SOL    HW1  773   7.936   5.643   2.422
32922SOL    HW2  774   8.001   5.710   2.304
32923SOL     OW  775   8.889   6.752   1.883
32923SOL    HW1  776   8.919   6.680   1.941
32923SOL    HW2  777   8.802   6.774   1.919
32924SOL     OW  778   7.735   5.620   2.054
32924SOL    HW1  779   7.794   5.691   2.028
32924SOL    HW2  780   7.796   5.555   2.092
32925SOL     OW  781   8.374   5.839   2.336
32925SOL    HW1  782   8.352   5.889   2.256
32925SOL    HW2  783   8.470   5.858   2.343
32926SOL     OW  784   8.532   6.266   3.328
32926SOL    HW1  785   8.476   6.187   3.334
32926SOL    HW2  786   8.623   6.230   3.324
32927SOL     OW  787   8.667   7.170   2.658
32927SOL    HW1  788   8.670   7.221   2.576
32927SOL    HW2  789   8.752   7.191   2.699
32928SOL     OW  790   7.921   6.764   2.612
32928SOL    HW1  791   7.844   6.731   2.663
32928SOL    HW2  792   7.890   6.743   2.520
32929SOL     OW  793   8.715   7.396   2.453
32929SOL    HW1  794   8.764   7.458   2.395
32929SOL    HW2  795   8.686   7.456   2.523
32930SOL     OW  796   8.499   6.128   1.886
32930SOL    HW1  797   8.453   6.212   1.868
32930SOL    HW2  798   8.565   6.150   1.953
32931SOL     OW  799   7.511   6.147   3.251
32931SOL    HW1  800   7.606   6.131   3.239
32931SOL    HW2  801   7.512   6.220   3.316
32932SOL     OW  802   8.017   5.785   3.016
32932SOL    HW1  803   8.055   5.721   3.078
32932SOL    HW2  804   7.928   5.796   3.053
32933SOL     OW  805   8.324   6.047   2.513
32933SOL    HW1  806   8.270   6.102   2.455
32933SOL    HW2  807   8.340   5.968   2.459
32934SOL     OW  808   8.479   5.635   2.631
32934SOL    HW1  809   8.424   5.632   2.551
32934SOL    HW2  810   8.443   5.568   2.689
32935SOL     OW  811   8.861   6.768   2.746
32935SOL    HW1  812   8.799   6.695   2.762
32935SOL    HW2  813   8.869   6.765   2.650
32936SOL     OW  814   8.934   6.155   2.834
32936SOL    HW1  815   8.880   6.077   2.850
32936SOL    HW2  816   8.991   6.160   2.914
32937SOL     OW  817   9.290   6.411   2.250
32937SOL    HW1  818   9.342   6.356   2.312
32937SOL    HW2  819   9.278   6.347   2.177
32938SOL     OW  820   7.942   7.014   1.978
32938SOL    HW1  821   7.862   6.996   2.031
32938SOL    HW2  822   7.933   6.951   1.906
32939SOL     OW  823   9.125   6.891   2.526
32939SOL    HW1  824   9.222   6.889   2.537
32939SOL    HW2  825   9.104   6.978   2.563
32940SOL     OW  826   8.846   6.179   1.922
32940SOL    HW1  827   8.801   6.150   2.004
32940SOL    HW2  828   8.937   6.153   1.939
32941SOL     OW  829   7.968   5.825   2.185
32941SOL    HW1  830   8.014   5.795   2.105
32941SOL    HW2  831   7.940   5.913   2.154
32942SOL     OW  832   9.179   6.817   3.442
32942SOL    HW1  833   9.270   6.781   3.440
32942SOL    HW2  834   9.198   6.911   3.458
32943SOL     OW  835   8.518   6.955   3.204
32943SOL    HW1  836   8.444   6.914   3.251
32943SOL    HW2  837   8.594   6.905   3.242
32944SOL     OW  838   9.050   7.185   3.504
32944SOL    HW1  839   9.057   7.225   3.416
32944SOL    HW2  840   9.134   7.136   3.509
32945SOL     OW  841   8.570   6.816   2.960
32945SOL    HW1  842   8.503   6.840   3.024
32945SOL    HW2  843   8.537   6.856   2.878
32946SOL     OW  844   9.048   6.681   2.937
32946SOL    HW1  845   9.059   6.743   3.012
32946SOL    HW2  846   8.988   6.732   2.879
32947SOL     OW  847   8.377   5.677   3.272
32947SOL    HW1  848   8.397   5.665   3.178
32947SOL    HW2  849   8.453   5.730   3.302
32948SOL     OW  850   8.446   6.703   3.602
32948SOL    HW1  851   8.354   6.724   3.622
32948SOL    HW2  852   8.439   6.626   3.542
32949SOL     OW  853   8.180   6.678   2.243
32949SOL    HW1  854   8.159   6.644   2.331
32949SOL    HW2  855   8.234   6.606   2.204
32950SOL     OW  856   7.871   6.399   3.124
32950SOL    HW1  857   7.944   6.398   3.190
32950SOL    HW2  858   7.828   6.313   3.141
32951SOL     OW  859   8.728   5.977   3.125
32951SOL    HW1  860   8.743   6.053   3.184
32951SOL    HW2  861   8.636   5.990   3.096
32952SOL     OW  862   7.524   7.166   3.212
32952SOL    HW1  863   7.525   7.252   3.167
32952SOL    HW2  864   7.616   7.135   3.203
32953SOL     OW  865   7.827   6.713   2.373
32953SOL    HW1  866   7.864   6.765   2.301
32953SOL    HW2  867   7.799   6.635   2.322
32954SOL     OW  868   7.990   6.126   2.700
32954SOL    HW1  869   8.018   6.191   2.632
32954SOL    HW2  870   8.050   6.147   2.774
32955SOL     OW  871   8.682   6.927   2.250
32955SOL    HW1  872   8.725   7.006   2.287
32955SOL    HW2  873   8.591   6.938   2.283
32956SOL     OW  874   8.747   7.048   3.026
32956SOL    HW1  875   8.806   7.043   3.104
32956SOL    HW2  876   8.692   6.968   3.035
32957SOL     OW  877   9.025   6.191   2.326
32957SOL    HW1  878   8.976   6.241   2.393
32957SOL    HW2  879   9.060   6.261   2.270
32958SOL     OW  880   7.782   7.107   3.179
32958SOL    HW1  881   7.770   7.064   3.092
32958SOL    HW2  882   7.879   7.121   3.178
32959SOL     OW  883   7.897   6.314   3.493
32959SOL    HW1  884   7.948   6.358   3.423
32959SOL    HW2  885   7.932   6.224   3.491
32960SOL     OW  886   9.069   6.371   3.549
32960SOL    HW1  887   8.978   6.406   3.542
32960SOL    HW2  888   9.112   6.414   3.472
32961SOL     OW  889   8.442   5.699   3.603
32961SOL    HW1  890   8.508   5.768   3.595
32961SOL    HW2  891   8.491   5.622   3.570
32962SOL     OW  892   7.971   5.606   3.596
32962SOL    HW1  893   7.915   5.550   3.538
32962SOL    HW2  894   7.905   5.673   3.624
32963SOL     OW  895   8.029   6.477   2.910
32963SOL    HW1  896   8.055   6.570   2.913
32963SOL    HW2  897   7.972   6.466   2.988
32964SOL     OW  898   8.808   6.434   2.884
32964SOL    HW1  899   8.721   6.406   2.854
32964SOL    HW2  900   8.855   6.350   2.889
32965SOL     OW  901   8.677   6.107   2.135
32965SOL    HW1  902   8.683   6.034   2.199
32965SOL    HW2  903   8.616   6.167   2.182
32966SOL     OW  904   7.753   5.794   3.118
32966SOL    HW1  905   7.698   5.824   3.193
32966SOL    HW2  906   7.729   5.699   3.114
32967SOL     OW  907   7.525   6.893   3.143
32967SOL    HW1  908   7.516   6.826   3.213
32967SOL    HW2  909   7.478   6.969   3.180
32968SOL     OW  910   8.154   6.221   2.908
32968SOL    HW1  911   8.238   6.204   2.861
32968SOL    HW2  912   8.136   6.316   2.894
32969SOL     OW  913   9.220   6.535   3.709
32969SOL    HW1  914   9.167   6.480   3.649
32969SOL    HW2  915   9.162   6.538   3.787
32970SOL     OW  916   7.748   5.643   2.475
32970SOL    HW1  917   7.722   5.734   2.498
32970SOL    HW2  918   7.751   5.601   2.563
32971SOL     OW  919   9.027   5.945   2.217
32971SOL    HW1  920   9.081   5.885   2.271
32971SOL    HW2  921   9.028   6.029   2.268
32972SOL     OW  922   8.508   6.339   2.835
32972SOL    HW1  923   8.487   6.349   2.930
32972SOL    HW2  924   8.471   6.251   2.817
32973SOL     OW  925   8.426   7.157   3.568
32973SOL    HW1  926   8.411   7.212   3.487
32973SOL    HW2  927   8.456   7.073   3.529
32974SOL     OW  928   9.298   7.076   3.468
32974SOL    HW1  929   9.316   7.099   3.375
32974SOL    HW2  930   9.382   7.099   3.512
32975SOL     OW  931   7.805   6.498   3.660
32975SOL    HW1  932   7.883   6.505   3.717
32975SOL    HW2  933   7.832   6.423   3.602
32976SOL     OW  934   8.949   5.833   1.985
32976SOL    HW1  935   8.884   5.766   2.012
32976SOL    HW2  936   8.982   5.870   2.069
32977SOL     OW  937   8.743   6.423   1.879
32977SOL    HW1  938   8.788   6.338   1.892
32977SOL    HW2  939   8.777   6.450   1.791
32978SOL     OW  940   8.511   6.946   2.709
32978SOL    HW1  941   8.531   6.871   2.649
32978SOL    HW2  942   8.583   7.010   2.692
32979SOL     OW  943   7.735   6.402   2.861
32979SOL    HW1  944   7.828   6.415   2.836
32979SOL    HW2  945   7.736   6.309   2.890
32980SOL     OW  946   7.772   6.117   2.859
32980SOL    HW1  947   7.746   6.025   2.844
32980SOL    HW2  948   7.838   6.131   2.788
32981SOL     OW  949   8.607   5.966   3.545
32981SOL    HW1  950   8.559   6.018   3.613
32981SOL    HW2  951   8.695   6.007   3.548
32982SOL     OW  952   8.616   5.792   3.337
32982SOL    HW1  953   8.612   5.856   3.412
32982SOL    HW2  954   8.661   5.845   3.270
32983SOL     OW  955   7.449   6.904   2.059
32983SOL    HW1  956   7.357   6.917   2.028
32983SOL    HW2  957   7.447   6.813   2.095
32984SOL     OW  958   7.546   7.368   2.808
32984SOL    HW1  959   7.516   7.295   2.749
32984SOL    HW2  960   7.637   7.384   2.773
32985SOL     OW  961   7.927   7.178   2.792
32985SOL    HW1  962   7.997   7.243   2.816
32985SOL    HW2  963   7.977   7.116   2.736
32986SOL     OW  964   8.420   6.347   3.090
32986SOL    HW1  965   8.470   6.319   3.169
32986SOL    HW2  966   8.329   6.332   3.119
32987SOL     OW  967   7.478   6.104   2.970
32987SOL    HW1  968   7.558   6.101   2.916
32987SOL    HW2  969   7.513   6.119   3.059
32988SOL     OW  970   7.657   6.104   3.586
32988SOL    HW1  971   7.707   6.056   3.519
32988SOL    HW2  972   7.611   6.172   3.534
32989SOL     OW  973   8.831   6.510   3.509
32989SOL    HW1  974   8.856   6.604   3.507
32989SOL    HW2  975   8.834   6.486   3.414
32990SOL     OW  976   8.245   6.169   2.234
32990SOL    HW1  977   8.248   6.098   2.168
32990SOL    HW2  978   8.162   6.215   2.212
32991SOL     OW  979   9.084   6.198   3.059
32991SOL    HW1  980   9.067   6.136   3.131
32991SOL    HW2  981   9.173   6.170   3.028
32992SOL     OW  982   7.693   7.123   3.581
32992SOL    HW1  983   7.680   7.190   3.649
32992SOL    HW2  984   7.699   7.041   3.634
32993SOL     OW  985   8.139   6.066   3.134
32993SOL    HW1  986   8.078   5.993   3.120
32993SOL    HW2  987   8.127   6.122   3.054
32994SOL     OW  988   8.362   7.285   3.341
32994SOL    HW1  989   8.353   7.246   3.253
32994SOL    HW2  990   8.355   7.381   3.323
32995SOL     OW  991   7.896   6.057   2.063
32995SOL    HW1  992   7.952   6.137   2.071
32995SOL    HW2  993   7.809   6.098   2.053
32996SOL     OW  994   7.560   6.716   3.336
32996SOL    HW1  995   7.568   6.659   3.416
32996SOL    HW2  996   7.579   6.653   3.263
32997SOL     OW  997   8.766   6.625   3.087
32997SOL    HW1  998   8.786   6.565   3.013
32997SOL    HW2  999   8.700   6.685   3.047
32998SOL     OW 1000   8.748   6.443   2.150
32998SOL    HW1 1001   8.665   6.413   2.189
32998SOL    HW2 1002   8.728   6.445   2.055
32999SOL     OW 1003   9.190   7.335   3.008
32999SOL    HW1 1004   9.263   7.352   2.945
32999SOL    HW2 1005   9.175   7.239   2.991
33000SOL     OW 1006   8.689   7.313   2.980
33000SOL    HW1 1007   8.779   7.336   2.953
33000SOL    HW2 1008   8.696   7.217   2.993
33001SOL     OW 1009   7.558   6.844   2.887
33001SOL    HW1 1010   7.543   6.865   2.982
33001SOL    HW2 1011   7.472   6.810   2.860
33002SOL     OW 1012   8.138   7.232   3.602
33002SOL    HW1 1013   8.106   7.322   3.588
33002SOL    HW2 1014   8.226   7.234   3.560
33003SOL     OW 1015   9.125   5.713   2.359
33003SOL    HW1 1016   9.200   5.706   2.298
33003SOL    HW2 1017   9.130   5.631   2.411
33004SOL     OW 1018   8.797   7.161   2.339
33004SOL    HW1 1019   8.866   7.180   2.273
33004SOL    HW2 1020   8.766   7.250   2.363
33005SOL     OW 1021   7.602   7.383   3.691
33005SOL    HW1 1022   7.556   7.312   3.740
33005SOL    HW2 1023   7.647   7.429   3.764
33006SOL     OW 1024   8.701   6.501   2.520
33006SOL    HW1 1025   8.781   6.448   2.535
33006SOL    HW2 1026   8.739   6.581   2.479
33007SOL     OW 1027   8.257   6.848   3.294
33007SOL    HW1 1028   8.227   6.894   3.375
33007SOL    HW2 1029   8.188   6.872   3.231
33008SOL     OW 1030   8.116   7.209   2.019
33008SOL    HW1 1031   8.133   7.220   1.923
33008SOL    HW2 1032   8.058   7.130   2.016
33009SOL     OW 1033   9.067   7.299   3.252
33009SOL    HW1 1034   9.113   7.315   3.167
33009SOL    HW2 1035   9.054   7.391   3.285
33010SOL     OW 1036   9.282   5.749   2.830
33010SOL    HW1 1037   9.302   5.664   2.786
33010SOL    HW2 1038   9.199   5.780   2.787
33011SOL     OW 1039   7.698   5.887   2.570
33011SOL    HW1 1040   7.618   5.941   2.553
33011SOL    HW2 1041   7.704   5.890   2.667
33012SOL     OW 1042   8.635   7.210   1.885
33012SOL    HW1 1043   8.641   7.114   1.901
33012SOL    HW2 1044   8.576   7.216   1.808
33013SOL     OW 1045   8.272   6.584   3.246
33013SOL    HW1 1046   8.306   6.590   3.156
33013SOL    HW2 1047   8.264   6.679   3.271
33014SOL     OW 1048   8.360   6.498   2.140
33014SOL    HW1 1049   8.429   6.533   2.081
33014SOL    HW2 1050   8.397   6.417   2.174
33015SOL     OW 1051   8.990   7.228   1.902
33015SOL    HW1 1052   8.894   7.229   1.897
33015SOL    HW2 1053   9.017   7.223   1.808
33016SOL     OW 1054   7.790   6.865   3.343
33016SOL    HW1 1055   7.777   6.936   3.279
33016SOL    HW2 1056   7.708   6.814   3.335
33017SOL     OW 1057   9.048   6.879   3.132
33017SOL    HW1 1058   9.102   6.864   3.211
33017SOL    HW2 1059   8.992   6.953   3.161
33018SOL     OW 1060   8.505   6.702   2.591
33018SOL    HW1 1061   8.426   6.655   2.623
33018SOL    HW2 1062   8.556   6.631   2.551
33019SOL     OW 1063   8.474   5.814   2.847
33019SOL    HW1 1064   8.467   5.767   2.763
33019SOL    HW2 1065   8.477   5.741   2.912
33020SOL     OW 1066   8.071   7.079   2.357
33020SOL    HW1 1067   8.113   7.027   2.286
33020SOL    HW2 1068   7.990   7.110   2.315
33021SOL     OW 1069   9.163   5.958   3.244
33021SOL    HW1 1070   9.228   6.031   3.240
33021SOL    HW2 1071   9.206   5.890   3.187
33022SOL     OW 1072   7.695   6.971   2.130
33022SOL    HW1 1073   7.601   6.946   2.122
33022SOL    HW2 1074   7.705   6.984   2.226
33023SOL     OW 1075   7.574   6.591   3.562
33023SOL    HW1 1076   7.502   6.577   3.626
33023SOL    HW2 1077   7.654   6.565   3.612
33024SOL     OW 1078   8.135   5.786   3.337
33024SOL    HW1 1079   8.221   5.745   3.315
33024SOL    HW2 1080   8.150   5.816   3.429
33025SOL     OW 1081   7.553   5.912   1.871
33025SOL    HW1 1082   7.458   5.917   1.857
33025SOL    HW2 1083   7.581   6.001   1.842
33026SOL     OW 1084   8.897   6.442   3.255
33026SOL    HW1 1085   8.855   6.506   3.194
33026SOL    HW2 1086   8.991   6.459   3.240
33027SOL     OW 1087   7.494   5.765   2.160
33027SOL    HW1 1088   7.489   5.853   2.121
33027SOL    HW2 1089   7.576   5.731   2.121
33028SOL     OW 1090   8.645   6.939   1.973
33028SOL    HW1 1091   8.561   6.892   1.981
33028SOL    HW2 1092   8.674   6.943   2.066
33029SOL     OW 1093   8.075   6.398   3.293
33029SOL    HW1 1094   8.131   6.477   3.285
33029SOL    HW2 1095   8.142   6.330   3.309
33030SOL     OW 1096   8.953   7.367   2.832
33030SOL    HW1 1097   8.992   7.390   2.747
33030SOL    HW2 1098   9.032   7.340   2.882
33031SOL     OW 1099   8.172   6.119   3.556
33031SOL    HW1 1100   8.213   6.184   3.615
33031SOL    HW2 1101   8.187   6.033   3.600
33032SOL     OW 1102   8.905   6.771   3.497
33032SOL    HW1 1103   8.898   6.779   3.594
33032SOL    HW2 1104   8.998   6.793   3.482
33033SOL     OW 1105   7.827   7.333   3.426
33033SOL    HW1 1106   7.742   7.376   3.410
33033SOL    HW2 1107   7.800   7.245   3.459
33034SOL     OW 1108   9.149   6.468   3.102
33034SOL    HW1 1109   9.128   6.379   3.068
33034SOL    HW2 1110   9.111   6.528   3.035
33035SOL     OW 1111   8.642   5.906   2.344
33035SOL    HW1 1112   8.710   5.839   2.332
33035SOL    HW2 1113   8.680   5.962   2.415
33036SOL     OW 1114   8.057   6.320   2.520
33036SOL    HW1 1115   8.081   6.412   2.505
33036SOL    HW2 1116   7.982   6.311   2.457
33037SOL     OW 1117   9.212   5.966   3.505
33037SOL    HW1 1118   9.183   5.971   3.412
33037SOL    HW2 1119   9.139   5.917   3.546
33038SOL     OW 1120   9.183   6.534   3.363
33038SOL    HW1 1121   9.182   6.631   3.368
33038SOL    HW2 1122   9.192   6.517   3.268
33039SOL     OW 1123   8.306   6.949   1.895
33039SOL    HW1 1124   8.277   6.963   1.987
33039SOL    HW2 1125   8.328   7.037   1.863
33040SOL     OW 1126   8.091   7.393   2.789
33040SOL    HW1 1127   8.084   7.486   2.763
33040SOL    HW2 1128   8.186   7.377   2.793
33041SOL     OW 1129   8.320   6.532   2.705
33041SOL    HW1 1130   8.371   6.457   2.739
33041SOL    HW2 1131   8.302   6.584   2.785
33042SOL     OW 1132   8.545   6.584   1.955
33042SOL    HW1 1133   8.508   6.638   1.883
33042SOL    HW2 1134   8.600   6.521   1.905
33043SOL     OW 1135   9.264   7.097   2.674
33043SOL    HW1 1136   9.271   7.192   2.656
33043SOL    HW2 1137   9.327   7.088   2.746
33044SOL     OW 1138   7.683   6.899   3.732
33044SOL    HW1 1139   7.609   6.842   3.707
33044SOL    HW2 1140   7.669   6.909   3.828
33045SOL     OW 1141   7.535   6.844   2.514
33045SOL    HW1 1142   7.535   6.787   2.593
33045SOL    HW2 1143   7.605   6.803   2.461
33046SOL     OW 1144   8.120   6.986   3.487
33046SOL    HW1 1145   8.041   6.935   3.513
33046SOL    HW2 1146   8.104   7.072   3.531
33047SOL     OW 1147   9.269   5.761   3.090
33047SOL    HW1 1148   9.281   5.666   3.106
33047SOL    HW2 1149   9.274   5.763   2.992
33048SOL     OW 1150   7.874   6.017   2.391
33048SOL    HW1 1151   7.915   5.950   2.335
33048SOL    HW2 1152   7.829   5.965   2.461
33049SOL     OW 1153   9.163   7.078   2.963
33049SOL    HW1 1154   9.099   7.049   2.896
33049SOL    HW2 1155   9.158   7.006   3.027
33050SOL     OW 1156   7.779   6.133   3.141
33050SOL    HW1 1157   7.841   6.085   3.199
33050SOL    HW2 1158   7.795   6.096   3.053
33051SOL     OW 1159   8.274   7.174   2.535
33051SOL    HW1 1160   8.263   7.198   2.442
33051SOL    HW2 1161   8.191   7.128   2.552
33052SOL     OW 1162   8.886   5.841   2.965
33052SOL    HW1 1163   8.920   5.763   3.010
33052SOL    HW2 1164   8.835   5.887   3.035
33053SOL     OW 1165   8.468   5.593   3.020
33053SOL    HW1 1166   8.412   5.515   3.011
33053SOL    HW2 1167   8.558   5.552   3.017
33054SOL     OW 1168   8.238   6.930   2.174
33054SOL    HW1 1169   8.202   6.838   2.180
33054SOL    HW2 1170   8.311   6.923   2.238
33055SOL     OW 1171   8.046   7.138   3.132
33055SOL    HW1 1172   8.046   7.224   3.180
33055SOL    HW2 1173   8.139   7.136   3.104
33056SOL     OW 1174   8.765   5.608   2.028
33056SOL    HW1 1175   8.777   5.535   1.966
33056SOL    HW2 1176   8.677   5.586   2.064
33057SOL     OW 1177   8.747   6.059   2.540
33057SOL    HW1 1178   8.689   6.137   2.542
33057SOL    HW2 1179   8.729   6.017   2.626
33058SOL     OW 1180   9.040   5.806   2.733
33058SOL    HW1 1181   8.971   5.821   2.800
33058SOL    HW2 1182   9.033   5.885   2.676
33059SOL     OW 1183   7.477   6.662   2.183
33059SOL    HW1 1184   7.573   6.657   2.160
33059SOL    HW2 1185   7.456   6.567   2.180
33060SOL     OW 1186   8.329   7.230   2.200
33060SOL    HW1 1187   8.252   7.218   2.142
33060SOL    HW2 1188   8.307   7.310   2.253
33061SOL     OW 1189   7.689   6.237   3.845
33061SOL    HW1 1190   7.597   6.226   3.874
33061SOL    HW2 1191   7.689   6.195   3.758
33062SOL     OW 1192   7.442   5.980   4.337
33062SOL    HW1 1193   7.370   6.007   4.398
33062SOL    HW2 1194   7.404   5.900   4.299
33063SOL     OW 1195   8.027   6.878   4.925
33063SOL    HW1 1196   7.938   6.870   4.886
33063SOL    HW2 1197   8.027   6.971   4.953
33064SOL     OW 1198   8.994   7.125   4.439
33064SOL    HW1 1199   8.959   7.090   4.524
33064SOL    HW2 1200   8.921   7.110   4.375
33065SOL     OW 1201   8.585   6.277   4.428
33065SOL    HW1 1202   8.615   6.367   4.404
33065SOL    HW2 1203   8.546   6.291   4.515
33066SOL     OW 1204   9.226   6.193   3.965
33066SOL    HW1 1205   9.203   6.189   3.870
33066SOL    HW2 1206   9.169   6.123   4.000
33067SOL     OW 1207   8.204   6.753   4.757
33067SOL    HW1 1208   8.137   6.793   4.816
33067SOL    HW2 1209   8.231   6.830   4.703
33068SOL     OW 1210   8.351   6.353   5.541
33068SOL    HW1 1211   8.295   6.408   5.596
33068SOL    HW2 1212   8.359   6.404   5.458
33069SOL     OW 1213   8.144   6.624   4.368
33069SOL    HW1 1214   8.200   6.598   4.443
33069SOL    HW2 1215   8.064   6.658   4.412
33070SOL     OW 1216   8.146   6.747   5.538
33070SOL    HW1 1217   8.192   6.829   5.565
33070SOL    HW2 1218   8.061   6.781   5.504
33071SOL     OW 1219   7.773   7.013   4.797
33071SOL    HW1 1220   7.706   6.955   4.756
33071SOL    HW2 1221   7.807   7.067   4.722
33072SOL     OW 1222   8.917   7.082   5.101
33072SOL    HW1 1223   8.975   7.161   5.110
33072SOL    HW2 1224   8.852   7.096   5.172
33073SOL     OW 1225   9.064   6.025   4.467
33073SOL    HW1 1226   9.005   6.062   4.400
33073SOL    HW2 1227   9.052   6.088   4.540
33074SOL     OW 1228   7.666   7.295   4.203
33074SOL    HW1 1229   7.697   7.371   4.256
33074SOL    HW2 1230   7.726   7.298   4.127
33075SOL     OW 1231   8.561   6.930   5.383
33075SOL    HW1 1232   8.613   6.929   5.465
33075SOL    HW2 1233   8.518   6.843   5.387
33076SOL     OW 1234   7.706   7.018   4.260
33076SOL    HW1 1235   7.691   7.113   4.269
33076SOL    HW2 1236   7.636   6.980   4.317
33077SOL     OW 1237   7.717   6.659   4.619
33077SOL    HW1 1238   7.741   6.574   4.662
33077SOL    HW2 1239   7.668   6.707   4.689
33078SOL     OW 1240   8.061   7.367   5.137
33078SOL    HW1 1241   7.981   7.353   5.191
33078SOL    HW2 1242   8.087   7.458   5.163
33079SOL     OW 1243   8.022   6.574   3.844
33079SOL    HW1 1244   8.070   6.626   3.777
33079SOL    HW2 1245   8.064   6.607   3.926
33080SOL     OW 1246   9.061   5.693   5.218
33080SOL    HW1 1247   9.031   5.766   5.162
33080SOL    HW2 1248   9.065   5.733   5.305
33081SOL     OW 1249   7.562   6.224   4.277
33081SOL    HW1 1250   7.524   6.136   4.300
33081SOL    HW2 1251   7.553   6.274   4.361
33082SOL     OW 1252   9.290   7.320   4.068
33082SOL    HW1 1253   9.283   7.326   4.165
33082SOL    HW2 1254   9.313   7.411   4.043
33083SOL     OW 1255   7.509   7.180   3.846
33083SOL    HW1 1256   7.482   7.088   3.862
33083SOL    HW2 1257   7.477   7.225   3.926
33084SOL     OW 1258   9.135   6.487   4.354
33084SOL    HW1 1259   9.210   6.456   4.302
33084SOL    HW2 1260   9.099   6.555   4.296
33085SOL     OW 1261   9.090   6.708   4.173
33085SOL    HW1 1262   9.179   6.703   4.135
33085SOL    HW2 1263   9.099   6.779   4.239
33086SOL     OW 1264   7.598   6.301   5.399
33086SOL    HW1 1265   7.684   6.291   5.355
33086SOL    HW2 1266   7.581   6.396   5.389
33087SOL     OW 1267   8.032   6.989   4.483
33087SOL    HW1 1268   7.993   6.899   4.493
33087SOL    HW2 1269   8.027   7.000   4.387
33088SOL     OW 1270   8.734   6.811   5.150
33088SOL    HW1 1271   8.768   6.739   5.095
33088SOL    HW2 1272   8.790   6.803   5.230
33089SOL     OW 1273   8.263   5.555   4.241
33089SOL    HW1 1274   8.306   5.642   4.250
33089SOL    HW2 1275   8.168   5.582   4.243
33090SOL     OW 1276   7.620   6.539   4.957
33090SOL    HW1 1277   7.710   6.515   4.932
33090SOL    HW2 1278   7.566   6.494   4.890
33091SOL     OW 1279   9.003   6.543   3.903
33091SOL    HW1 1280   8.925   6.492   3.930
33091SOL    HW2 1281   9.030   6.584   3.987
33092SOL     OW 1282   8.615   7.393   5.341
33092SOL    HW1 1283   8.628   7.455   5.268
33092SOL    HW2 1284   8.642   7.308   5.301
33093SOL     OW 1285   8.917   7.013   4.679
33093SOL    HW1 1286   8.856   7.032   4.754
33093SOL    HW2 1287   8.889   6.922   4.656
33094SOL     OW 1288   9.110   7.323   4.313
33094SOL    HW1 1289   9.072   7.283   4.233
33094SOL    HW2 1290   9.080   7.257   4.380
33095SOL     OW 1291   8.031   6.298   3.992
33095SOL    HW1 1292   8.036   6.384   3.948
33095SOL    HW2 1293   7.959   6.310   4.055
33096SOL     OW 1294   8.729   5.939   4.647
33096SOL    HW1 1295   8.638   5.913   4.669
33096SOL    HW2 1296   8.780   5.894   4.717
33097SOL     OW 1297   9.019   7.242   4.039
33097SOL    HW1 1298   9.114   7.254   4.030
33097SOL    HW2 1299   8.994   7.234   3.945
33098SOL     OW 1300   8.266   6.197   5.193
33098SOL    HW1 1301   8.234   6.165   5.280
33098SOL    HW2 1302   8.218   6.139   5.131
33099SOL     OW 1303   8.831   6.066   5.397
33099SOL    HW1 1304   8.832   6.123   5.476
33099SOL    HW2 1305   8.893   5.995   5.422
33100SOL     OW 1306   8.403   6.479   5.293
33100SOL    HW1 1307   8.449   6.398   5.259
33100SOL    HW2 1308   8.358   6.511   5.213
33101SOL     OW 1309   8.442   5.996   4.967
33101SOL    HW1 1310   8.356   6.019   5.006
33101SOL    HW2 1311   8.416   5.944   4.890
33102SOL     OW 1312   8.497   6.265   4.132
33102SOL    HW1 1313   8.507   6.282   4.228
33102SOL    HW2 1314   8.411   6.219   4.130
33103SOL     OW 1315   7.566   6.430   4.457
33103SOL    HW1 1316   7.593   6.388   4.540
33103SOL    HW2 1317   7.530   6.512   4.492
33104SOL     OW 1318   7.554   7.422   5.289
33104SOL    HW1 1319   7.567   7.400   5.384
33104SOL    HW2 1320   7.459   7.409   5.279
33105SOL     OW 1321   8.318   5.949   3.943
33105SOL    HW1 1322   8.359   5.999   3.871
33105SOL    HW2 1323   8.314   5.862   3.904
33106SOL     OW 1324   9.181   6.180   5.567
33106SOL    HW1 1325   9.136   6.255   5.523
33106SOL    HW2 1326   9.197   6.123   5.491
33107SOL     OW 1327   8.815   6.740   4.282
33107SOL    HW1 1328   8.895   6.730   4.229
33107SOL    HW2 1329   8.763   6.800   4.226
33108SOL     OW 1330   8.005   5.781   4.624
33108SOL    HW1 1331   7.995   5.791   4.721
33108SOL    HW2 1332   7.981   5.868   4.591
33109SOL     OW 1333   8.447   7.035   4.205
33109SOL    HW1 1334   8.401   7.099   4.147
33109SOL    HW2 1335   8.448   7.081   4.290
33110SOL     OW 1336   7.793   7.406   4.581
33110SOL    HW1 1337   7.843   7.323   4.596
33110SOL    HW2 1338   7.860   7.473   4.601
33111SOL     OW 1339   9.250   6.628   4.589
33111SOL    HW1 1340   9.204   6.610   4.505
33111SOL    HW2 1341   9.177   6.626   4.653
33112SOL     OW 1342   8.674   7.147   5.230
33112SOL    HW1 1343   8.646   7.077   5.292
33112SOL    HW2 1344   8.627   7.120   5.150
33113SOL     OW 1345   7.750   6.550   3.974
33113SOL    HW1 1346   7.833   6.571   3.929
33113SOL    HW2 1347   7.724   6.466   3.932
33114SOL     OW 1348   8.924   6.340   4.439
33114SOL    HW1 1349   8.930   6.307   4.530
33114SOL    HW2 1350   9.009   6.388   4.429
33115SOL     OW 1351   7.915   6.856   5.445
33115SOL    HW1 1352   7.876   6.857   5.355
33115SOL    HW2 1353   7.833   6.869   5.496
33116SOL     OW 1354   8.535   7.358   3.967
33116SOL    HW1 1355   8.468   7.303   4.011
33116SOL    HW2 1356   8.546   7.314   3.881
33117SOL     OW 1357   9.064   6.956   3.818
33117SOL    HW1 1358   9.021   7.034   3.783
33117SOL    HW2 1359   9.004   6.884   3.791
33118SOL     OW 1360   7.904   7.331   4.042
33118SOL    HW1 1361   7.954   7.374   4.114
33118SOL    HW2 1362   7.974   7.295   3.985
33119SOL     OW 1363   8.844   5.724   4.163
33119SOL    HW1 1364   8.833   5.668   4.084
33119SOL    HW2 1365   8.940   5.719   4.179
33120SOL     OW 1366   7.685   7.373   4.958
33120SOL    HW1 1367   7.754   7.322   5.003
33120SOL    HW2 1368   7.695   7.346   4.866
33121SOL     OW 1369   8.405   7.288   4.613
33121SOL    HW1 1370   8.486   7.237   4.629
33121SOL    HW2 1371   8.360   7.234   4.545
33122SOL     OW 1372   7.819   6.265   4.193
33122SOL    HW1 1373   7.851   6.173   4.201
33122SOL    HW2 1374   7.726   6.256   4.221
33123SOL     OW 1375   9.004   5.848   5.455
33123SOL    HW1 1376   8.993   5.851   5.553
33123SOL    HW2 1377   8.946   5.774   5.435
33124SOL     OW 1378   8.080   5.725   3.810
33124SOL    HW1 1379   8.142   5.663   3.851
33124SOL    HW2 1380   8.028   5.666   3.752
33125SOL     OW 1381   8.234   5.868   5.512
33125SOL    HW1 1382   8.302   5.799   5.496
33125SOL    HW2 1383   8.160   5.818   5.548
33126SOL     OW 1384   8.340   7.140   4.923
33126SOL    HW1 1385   8.328   7.107   4.833
33126SOL    HW2 1386   8.407   7.080   4.960
33127SOL     OW 1387   8.781   6.181   5.155
33127SOL    HW1 1388   8.815   6.148   5.241
33127SOL    HW2 1389   8.833   6.262   5.141
33128SOL     OW 1390   8.253   7.004   4.642
33128SOL    HW1 1391   8.339   6.984   4.599
33128SOL    HW2 1392   8.188   6.993   4.570
33129SOL     OW 1393   8.382   6.134   4.634
33129SOL    HW1 1394   8.351   6.112   4.543
33129SOL    HW2 1395   8.396   6.046   4.670
33130SOL     OW 1396   8.015   5.649   4.241
33130SOL    HW1 1397   7.928   5.634   4.285
33130SOL    HW2 1398   7.992   5.717   4.175
33131SOL     OW 1399   8.889   6.762   3.762
33131SOL    HW1 1400   8.915   6.680   3.808
33131SOL    HW2 1401   8.797   6.774   3.790
33132SOL     OW 1402   8.379   5.832   4.216
33132SOL    HW1 1403   8.340   5.864   4.134
33132SOL    HW2 1404   8.473   5.855   4.203
33133SOL     OW 1405   8.530   6.272   5.185
33133SOL    HW1 1406   8.469   6.199   5.203
33133SOL    HW2 1407   8.617   6.229   5.183
33134SOL     OW 1408   8.674   7.160   4.526
33134SOL    HW1 1409   8.670   7.212   4.445
33134SOL    HW2 1410   8.756   7.190   4.566
33135SOL     OW 1411   7.915   6.741   4.461
33135SOL    HW1 1412   7.840   6.711   4.517
33135SOL    HW2 1413   7.879   6.719   4.372
33136SOL     OW 1414   8.714   7.394   4.329
33136SOL    HW1 1415   8.755   7.466   4.277
33136SOL    HW2 1416   8.662   7.443   4.394
33137SOL     OW 1417   8.510   6.127   3.739
33137SOL    HW1 1418   8.456   6.207   3.724
33137SOL    HW2 1419   8.573   6.154   3.807
33138SOL     OW 1420   7.966   5.818   4.892
33138SOL    HW1 1421   8.023   5.796   4.967
33138SOL    HW2 1422   7.912   5.891   4.930
33139SOL     OW 1423   8.324   6.055   4.384
33139SOL    HW1 1424   8.277   6.095   4.310
33139SOL    HW2 1425   8.336   5.964   4.352
33140SOL     OW 1426   8.867   6.762   4.610
33140SOL    HW1 1427   8.813   6.687   4.638
33140SOL    HW2 1428   8.861   6.756   4.513
33141SOL     OW 1429   8.951   6.184   4.677
33141SOL    HW1 1430   8.886   6.115   4.693
33141SOL    HW2 1431   8.998   6.191   4.762
33142SOL     OW 1432   9.292   6.407   4.123
33142SOL    HW1 1433   9.346   6.350   4.181
33142SOL    HW2 1434   9.275   6.346   4.049
33143SOL     OW 1435   7.941   7.000   3.848
33143SOL    HW1 1436   7.861   6.991   3.901
33143SOL    HW2 1437   7.920   6.949   3.769
33144SOL     OW 1438   9.129   6.881   4.380
33144SOL    HW1 1439   9.226   6.879   4.387
33144SOL    HW2 1440   9.103   6.968   4.414
33145SOL     OW 1441   8.857   6.189   3.783
33145SOL    HW1 1442   8.809   6.157   3.862
33145SOL    HW2 1443   8.947   6.157   3.801
33146SOL     OW 1444   7.966   5.831   4.050
33146SOL    HW1 1445   7.995   5.783   3.971
33146SOL    HW2 1446   7.928   5.911   4.008
33147SOL     OW 1447   9.185   6.820   5.296
33147SOL    HW1 1448   9.275   6.786   5.285
33147SOL    HW2 1449   9.204   6.915   5.311
33148SOL     OW 1450   8.522   6.963   5.073
33148SOL    HW1 1451   8.440   6.926   5.113
33148SOL    HW2 1452   8.590   6.904   5.112
33149SOL     OW 1453   9.059   7.188   5.363
33149SOL    HW1 1454   9.061   7.225   5.274
33149SOL    HW2 1455   9.143   7.140   5.366
33150SOL     OW 1456   8.568   6.811   4.824
33150SOL    HW1 1457   8.496   6.821   4.887
33150SOL    HW2 1458   8.536   6.860   4.747
33151SOL     OW 1459   9.045   6.681   4.797
33151SOL    HW1 1460   9.055   6.746   4.870
33151SOL    HW2 1461   8.990   6.732   4.734
33152SOL     OW 1462   8.414   5.668   5.125
33152SOL    HW1 1463   8.360   5.718   5.063
33152SOL    HW2 1464   8.484   5.729   5.150
33153SOL     OW 1465   8.424   6.690   5.464
33153SOL    HW1 1466   8.331   6.711   5.481
33153SOL    HW2 1467   8.419   6.619   5.397
33154SOL     OW 1468   8.161   6.646   4.071
33154SOL    HW1 1469   8.145   6.627   4.165
33154SOL    HW2 1470   8.236   6.586   4.051
33155SOL     OW 1471   7.895   6.392   4.978
33155SOL    HW1 1472   7.957   6.384   5.053
33155SOL    HW2 1473   7.869   6.301   4.961
33156SOL     OW 1474   8.721   5.984   4.986
33156SOL    HW1 1475   8.740   6.057   5.048
33156SOL    HW2 1476   8.625   5.995   4.969
33157SOL     OW 1477   7.520   7.149   5.056
33157SOL    HW1 1478   7.518   7.234   5.010
33157SOL    HW2 1479   7.616   7.133   5.060
33158SOL     OW 1480   7.822   6.680   4.220
33158SOL    HW1 1481   7.814   6.750   4.155
33158SOL    HW2 1482   7.796   6.602   4.169
33159SOL     OW 1483   8.003   6.108   4.569
33159SOL    HW1 1484   8.038   6.158   4.494
33159SOL    HW2 1485   8.049   6.150   4.644
33160SOL     OW 1486   8.675   6.925   4.102
33160SOL    HW1 1487   8.719   6.997   4.149
33160SOL    HW2 1488   8.584   6.936   4.135
33161SOL     OW 1489   8.751   7.053   4.891
33161SOL    HW1 1490   8.810   7.052   4.969
33161SOL    HW2 1491   8.686   6.985   4.915
33162SOL     OW 1492   9.031   6.198   4.191
33162SOL    HW1 1493   8.979   6.249   4.255
33162SOL    HW2 1494   9.064   6.266   4.132
33163SOL     OW 1495   7.788   7.099   5.044
33163SOL    HW1 1496   7.780   7.064   4.953
33163SOL    HW2 1497   7.881   7.126   5.044
33164SOL     OW 1498   7.872   6.312   5.356
33164SOL    HW1 1499   7.926   6.361   5.292
33164SOL    HW2 1500   7.889   6.222   5.320
33165SOL     OW 1501   9.074   6.365   5.407
33165SOL    HW1 1502   8.986   6.404   5.405
33165SOL    HW2 1503   9.116   6.408   5.330
33166SOL     OW 1504   8.445   5.703   5.495
33166SOL    HW1 1505   8.490   5.768   5.441
33166SOL    HW2 1506   8.488   5.622   5.466
33167SOL     OW 1507   8.085   6.493   4.784
33167SOL    HW1 1508   8.080   6.586   4.760
33167SOL    HW2 1509   7.998   6.477   4.826
33168SOL     OW 1510   8.788   6.456   4.739
33168SOL    HW1 1511   8.701   6.418   4.716
33168SOL    HW2 1512   8.841   6.376   4.751
33169SOL     OW 1513   8.682   6.107   3.984
33169SOL    HW1 1514   8.691   6.029   4.042
33169SOL    HW2 1515   8.618   6.159   4.035
33170SOL     OW 1516   7.479   6.885   5.017
33170SOL    HW1 1517   7.510   6.833   5.094
33170SOL    HW2 1518   7.488   6.978   5.045
33171SOL     OW 1519   8.156   6.234   4.766
33171SOL    HW1 1520   8.239   6.219   4.718
33171SOL    HW2 1521   8.144   6.331   4.766
33172SOL     OW 1522   9.210   6.537   5.575
33172SOL    HW1 1523   9.167   6.480   5.509
33172SOL    HW2 1524   9.142   6.540   5.644
33173SOL     OW 1525   7.774   5.651   4.346
33173SOL    HW1 1526   7.728   5.734   4.365
33173SOL    HW2 1527   7.763   5.602   4.427
33174SOL     OW 1528   9.042   5.960   4.073
33174SOL    HW1 1529   9.071   5.891   4.134
33174SOL    HW2 1530   9.034   6.039   4.131
33175SOL     OW 1531   8.522   6.343   4.709
33175SOL    HW1 1532   8.488   6.361   4.798
33175SOL    HW2 1533   8.478   6.258   4.690
33176SOL     OW 1534   8.429   7.156   5.426
33176SOL    HW1 1535   8.417   7.205   5.342
33176SOL    HW2 1536   8.461   7.070   5.394
33177SOL     OW 1537   9.305   7.082   5.322
33177SOL    HW1 1538   9.336   7.099   5.232
33177SOL    HW2 1539   9.386   7.098   5.374
33178SOL     OW 1540   7.797   6.482   5.547
33178SOL    HW1 1541   7.884   6.502   5.583
33178SOL    HW2 1542   7.819   6.408   5.485
33179SOL     OW 1543   8.951   5.840   3.857
33179SOL    HW1 1544   8.878   5.787   3.893
33179SOL    HW2 1545   8.990   5.881   3.937
33180SOL     OW 1546   8.747   6.438   3.748
33180SOL    HW1 1547   8.791   6.352   3.757
33180SOL    HW2 1548   8.770   6.462   3.655
33181SOL     OW 1549   8.505   6.947   4.574
33181SOL    HW1 1550   8.516   6.868   4.516
33181SOL    HW2 1551   8.580   7.004   4.550
33182SOL     OW 1552   7.796   6.411   4.695
33182SOL    HW1 1553   7.855   6.335   4.688
33182SOL    HW2 1554   7.710   6.366   4.702
33183SOL     OW 1555   7.779   6.133   4.722
33183SOL    HW1 1556   7.775   6.066   4.792
33183SOL    HW2 1557   7.844   6.099   4.659
33184SOL     OW 1558   8.582   5.966   5.397
33184SOL    HW1 1559   8.537   6.012   5.470
33184SOL    HW2 1560   8.670   6.007   5.399
33185SOL     OW 1561   8.658   5.796   5.201
33185SOL    HW1 1562   8.629   5.860   5.270
33185SOL    HW2 1563   8.682   5.855   5.128
33186SOL     OW 1564   7.452   6.901   3.930
33186SOL    HW1 1565   7.358   6.913   3.902
33186SOL    HW2 1566   7.449   6.810   3.967
33187SOL     OW 1567   7.546   7.371   4.671
33187SOL    HW1 1568   7.516   7.299   4.612
33187SOL    HW2 1569   7.637   7.387   4.639
33188SOL     OW 1570   7.928   7.182   4.646
33188SOL    HW1 1571   8.001   7.246   4.658
33188SOL    HW2 1572   7.972   7.111   4.595
33189SOL     OW 1573   8.413   6.365   4.959
33189SOL    HW1 1574   8.467   6.332   5.034
33189SOL    HW2 1575   8.328   6.325   4.979
33190SOL     OW 1576   8.836   6.503   5.375
33190SOL    HW1 1577   8.858   6.597   5.363
33190SOL    HW2 1578   8.817   6.473   5.285
33191SOL     OW 1579   8.254   6.153   4.118
33191SOL    HW1 1580   8.259   6.082   4.051
33191SOL    HW2 1581   8.169   6.195   4.095
33192SOL     OW 1582   9.084   6.211   4.925
33192SOL    HW1 1583   9.056   6.148   4.993
33192SOL    HW2 1584   9.168   6.172   4.893
33193SOL     OW 1585   7.691   7.123   5.448
33193SOL    HW1 1586   7.681   7.191   5.516
33193SOL    HW2 1587   7.694   7.040   5.501
33194SOL     OW 1588   8.155   6.069   4.984
33194SOL    HW1 1589   8.069   6.033   5.010
33194SOL    HW2 1590   8.133   6.127   4.908
33195SOL     OW 1591   8.376   7.273   5.191
33195SOL    HW1 1592   8.355   7.241   5.102
33195SOL    HW2 1593   8.375   7.370   5.181
33196SOL     OW 1594   7.889   6.062   3.926
33196SOL    HW1 1595   7.954   6.134   3.936
33196SOL    HW2 1596   7.807   6.113   3.916
33197SOL     OW 1597   7.576   6.692   5.189
33197SOL    HW1 1598   7.579   6.643   5.274
33197SOL    HW2 1599   7.597   6.624   5.122
33198SOL     OW 1600   8.770   6.616   4.963
33198SOL    HW1 1601   8.793   6.569   4.880
33198SOL    HW2 1602   8.703   6.678   4.931
33199SOL     OW 1603   8.764   6.439   4.025
33199SOL    HW1 1604   8.684   6.408   4.070
33199SOL    HW2 1605   8.736   6.444   3.932
33200SOL     OW 1606   9.200   7.334   4.849
33200SOL    HW1 1607   9.283   7.344   4.798
33200SOL    HW2 1608   9.187   7.236   4.842
33201SOL     OW 1609   8.698   7.316   4.832
33201SOL    HW1 1610   8.784   7.338   4.794
33201SOL    HW2 1611   8.707   7.220   4.849
33202SOL     OW 1612   7.555   6.839   4.762
33202SOL    HW1 1613   7.518   6.851   4.852
33202SOL    HW2 1614   7.481   6.795   4.716
33203SOL     OW 1615   8.142   7.226   5.465
33203SOL    HW1 1616   8.104   7.311   5.439
33203SOL    HW2 1617   8.230   7.229   5.424
33204SOL     OW 1618   9.120   5.716   4.214
33204SOL    HW1 1619   9.198   5.708   4.157
33204SOL    HW2 1620   9.122   5.631   4.264
33205SOL     OW 1621   8.812   7.161   4.211
33205SOL    HW1 1622   8.869   7.179   4.134
33205SOL    HW2 1623   8.770   7.247   4.228
33206SOL     OW 1624   7.603   7.376   5.546
33206SOL    HW1 1625   7.559   7.308   5.600
33206SOL    HW2 1626   7.650   7.426   5.616
33207SOL     OW 1627   8.710   6.506   4.383
33207SOL    HW1 1628   8.788   6.452   4.406
33207SOL    HW2 1629   8.751   6.584   4.341
33208SOL     OW 1630   8.273   6.865   5.148
33208SOL    HW1 1631   8.245   6.912   5.229
33208SOL    HW2 1632   8.197   6.882   5.089
33209SOL     OW 1633   8.106   7.213   3.879
33209SOL    HW1 1634   8.124   7.220   3.783
33209SOL    HW2 1635   8.051   7.131   3.879
33210SOL     OW 1636   9.067   7.301   5.109
33210SOL    HW1 1637   9.116   7.319   5.027
33210SOL    HW2 1638   9.054   7.391   5.146
33211SOL     OW 1639   9.301   5.758   4.688
33211SOL    HW1 1640   9.314   5.666   4.659
33211SOL    HW2 1641   9.210   5.779   4.657
33212SOL     OW 1642   7.678   5.893   4.447
33212SOL    HW1 1643   7.600   5.931   4.400
33212SOL    HW2 1644   7.676   5.943   4.530
33213SOL     OW 1645   8.633   7.218   3.749
33213SOL    HW1 1646   8.639   7.123   3.768
33213SOL    HW2 1647   8.575   7.221   3.671
33214SOL     OW 1648   8.250   6.592   5.094
33214SOL    HW1 1649   8.277   6.585   5.002
33214SOL    HW2 1650   8.251   6.687   5.110
33215SOL     OW 1651   8.368   6.497   4.003
33215SOL    HW1 1652   8.441   6.540   3.954
33215SOL    HW2 1653   8.406   6.414   4.035
33216SOL     OW 1654   8.985   7.230   3.759
33216SOL    HW1 1655   8.889   7.222   3.749
33216SOL    HW2 1656   9.014   7.221   3.665
33217SOL     OW 1657   7.785   6.872   5.210
33217SOL    HW1 1658   7.775   6.947   5.148
33217SOL    HW2 1659   7.712   6.812   5.185
33218SOL     OW 1660   9.055   6.888   4.981
33218SOL    HW1 1661   9.129   6.872   5.041
33218SOL    HW2 1662   8.999   6.950   5.032
33219SOL     OW 1663   8.497   6.709   4.444
33219SOL    HW1 1664   8.427   6.655   4.484
33219SOL    HW2 1665   8.557   6.642   4.409
33220SOL     OW 1666   8.471   5.817   4.720
33220SOL    HW1 1667   8.409   5.795   4.649
33220SOL    HW2 1668   8.489   5.727   4.753
33221SOL     OW 1669   8.066   7.083   4.222
33221SOL    HW1 1670   8.112   7.036   4.151
33221SOL    HW2 1671   7.988   7.118   4.178
33222SOL     OW 1672   9.160   5.959   5.102
33222SOL    HW1 1673   9.222   6.034   5.097
33222SOL    HW2 1674   9.205   5.892   5.048
33223SOL     OW 1675   7.696   6.975   3.998
33223SOL    HW1 1676   7.601   6.957   3.986
33223SOL    HW2 1677   7.700   6.993   4.095
33224SOL     OW 1678   7.576   6.600   5.438
33224SOL    HW1 1679   7.502   6.583   5.500
33224SOL    HW2 1680   7.653   6.560   5.483
33225SOL     OW 1681   8.156   5.812   5.172
33225SOL    HW1 1682   8.150   5.715   5.187
33225SOL    HW2 1683   8.142   5.847   5.260
33226SOL     OW 1684   7.539   5.933   3.765
33226SOL    HW1 1685   7.446   5.927   3.741
33226SOL    HW2 1686   7.573   6.000   3.703
33227SOL     OW 1687   8.902   6.429   5.111
33227SOL    HW1 1688   8.855   6.493   5.056
33227SOL    HW2 1689   8.992   6.465   5.110
33228SOL     OW 1690   7.510   5.732   4.004
33228SOL    HW1 1691   7.522   5.815   3.955
33228SOL    HW2 1692   7.575   5.672   3.960
33229SOL     OW 1693   8.646   6.943   3.831
33229SOL    HW1 1694   8.560   6.898   3.834
33229SOL    HW2 1695   8.672   6.940   3.926
33230SOL     OW 1696   8.075   6.383   5.176
33230SOL    HW1 1697   8.127   6.464   5.158
33230SOL    HW2 1698   8.145   6.316   5.182
33231SOL     OW 1699   8.951   7.345   4.688
33231SOL    HW1 1700   8.988   7.390   4.611
33231SOL    HW2 1701   9.030   7.331   4.742
33232SOL     OW 1702   8.189   6.125   5.446
33232SOL    HW1 1703   8.211   6.177   5.524
33232SOL    HW2 1704   8.201   6.033   5.475
33233SOL     OW 1705   8.911   6.770   5.350
33233SOL    HW1 1706   8.906   6.775   5.447
33233SOL    HW2 1707   9.005   6.792   5.333
33234SOL     OW 1708   7.825   7.325   5.279
33234SOL    HW1 1709   7.739   7.369   5.269
33234SOL    HW2 1710   7.799   7.237   5.310
33235SOL     OW 1711   9.161   6.475   4.957
33235SOL    HW1 1712   9.130   6.387   4.928
33235SOL    HW2 1713   9.117   6.535   4.894
33236SOL     OW 1714   8.657   5.920   4.188
33236SOL    HW1 1715   8.724   5.850   4.186
33236SOL    HW2 1716   8.687   5.975   4.264
33237SOL     OW 1717   8.056   6.320   4.369
33237SOL    HW1 1718   8.082   6.412   4.359
33237SOL    HW2 1719   7.971   6.315   4.323
33238SOL     OW 1720   9.224   5.965   5.362
33238SOL    HW1 1721   9.192   5.971   5.270
33238SOL    HW2 1722   9.148   5.919   5.404
33239SOL     OW 1723   9.174   6.523   5.217
33239SOL    HW1 1724   9.195   6.617   5.221
33239SOL    HW2 1725   9.195   6.501   5.124
33240SOL     OW 1726   8.310   6.949   3.758
33240SOL    HW1 1727   8.276   6.964   3.848
33240SOL    HW2 1728   8.326   7.038   3.724
33241SOL     OW 1729   8.091   7.393   4.632
33241SOL    HW1 1730   8.078   7.489   4.621
33241SOL    HW2 1731   8.185   7.385   4.652
33242SOL     OW 1732   8.329   6.540   4.570
33242SOL    HW1 1733   8.375   6.465   4.609
33242SOL    HW2 1734   8.304   6.591   4.649
33243SOL     OW 1735   8.551   6.602   3.832
33243SOL    HW1 1736   8.512   6.651   3.757
33243SOL    HW2 1737   8.602   6.534   3.785
33244SOL     OW 1738   9.307   7.139   4.555
33244SOL    HW1 1739   9.211   7.130   4.560
33244SOL    HW2 1740   9.335   7.069   4.616
33245SOL     OW 1741   7.679   6.885   5.568
33245SOL    HW1 1742   7.632   6.809   5.531
33245SOL    HW2 1743   7.645   6.887   5.658
33246SOL     OW 1744   7.525   6.852   4.384
33246SOL    HW1 1745   7.504   6.797   4.462
33246SOL    HW2 1746   7.564   6.787   4.324
33247SOL     OW 1747   8.130   6.989   5.348
33247SOL    HW1 1748   8.055   6.938   5.380
33247SOL    HW2 1749   8.116   7.076   5.391
33248SOL     OW 1750   9.283   5.761   4.953
33248SOL    HW1 1751   9.277   5.664   4.959
33248SOL    HW2 1752   9.290   5.774   4.856
33249SOL     OW 1753   7.900   6.007   4.250
33249SOL    HW1 1754   7.927   5.938   4.188
33249SOL    HW2 1755   7.860   5.957   4.323
33250SOL     OW 1756   9.165   7.077   4.806
33250SOL    HW1 1757   9.083   7.040   4.771
33250SOL    HW2 1758   9.177   7.019   4.883
33251SOL     OW 1759   8.270   7.179   4.395
33251SOL    HW1 1760   8.250   7.193   4.302
33251SOL    HW2 1761   8.188   7.139   4.426
33252SOL     OW 1762   8.882   5.835   4.833
33252SOL    HW1 1763   8.893   5.748   4.873
33252SOL    HW2 1764   8.831   5.884   4.901
33253SOL     OW 1765   8.234   6.925   4.038
33253SOL    HW1 1766   8.202   6.833   4.041
33253SOL    HW2 1767   8.311   6.921   4.097
33254SOL     OW 1768   8.049   7.143   4.995
33254SOL    HW1 1769   8.052   7.229   5.044
33254SOL    HW2 1770   8.141   7.138   4.967
33255SOL     OW 1771   8.766   5.620   3.905
33255SOL    HW1 1772   8.779   5.554   3.837
33255SOL    HW2 1773   8.676   5.596   3.936
33256SOL     OW 1774   8.734   6.056   4.402
33256SOL    HW1 1775   8.678   6.136   4.407
33256SOL    HW2 1776   8.729   6.019   4.492
33257SOL     OW 1777   9.048   5.785   4.600
33257SOL    HW1 1778   8.980   5.805   4.666
33257SOL    HW2 1779   9.046   5.863   4.543
33258SOL     OW 1780   7.482   6.664   4.053
33258SOL    HW1 1781   7.573   6.647   4.023
33258SOL    HW2 1782   7.454   6.572   4.075
33259SOL     OW 1783   8.321   7.232   4.059
33259SOL    HW1 1784   8.244   7.220   4.001
33259SOL    HW2 1785   8.301   7.315   4.107
33260SOL     OW 1786   7.687   6.225   5.716
33260SOL    HW1 1787   7.601   6.197   5.750
33260SOL    HW2 1788   7.667   6.248   5.624
33261SOL     OW 1789   7.680   5.858   6.581
33261SOL    HW1 1790   7.698   5.839   6.675
33261SOL    HW2 1791   7.591   5.819   6.570
33262SOL     OW 1792   7.445   5.978   6.205
33262SOL    HW1 1793   7.366   6.002   6.258
33262SOL    HW2 1794   7.420   5.889   6.173
33263SOL     OW 1795   8.029   6.901   6.755
33263SOL    HW1 1796   7.937   6.874   6.740
33263SOL    HW2 1797   8.019   6.989   6.796
33264SOL     OW 1798   8.987   7.124   6.308
33264SOL    HW1 1799   8.954   7.085   6.392
33264SOL    HW2 1800   8.917   7.103   6.243
33265SOL     OW 1801   8.579   6.266   6.301
33265SOL    HW1 1802   8.609   6.354   6.272
33265SOL    HW2 1803   8.541   6.285   6.388
33266SOL     OW 1804   9.220   6.198   5.825
33266SOL    HW1 1805   9.201   6.193   5.729
33266SOL    HW2 1806   9.172   6.122   5.859
33267SOL     OW 1807   8.217   6.753   6.628
33267SOL    HW1 1808   8.146   6.798   6.679
33267SOL    HW2 1809   8.237   6.819   6.561
33268SOL     OW 1810   8.330   6.331   7.387
33268SOL    HW1 1811   8.307   6.395   7.456
33268SOL    HW2 1812   8.354   6.388   7.311
33269SOL     OW 1813   8.139   6.616   6.242
33269SOL    HW1 1814   8.204   6.587   6.309
33269SOL    HW2 1815   8.072   6.661   6.295
33270SOL     OW 1816   8.141   6.740   7.386
33270SOL    HW1 1817   8.184   6.823   7.413
33270SOL    HW2 1818   8.050   6.768   7.367
33271SOL     OW 1819   7.769   7.017   6.635
33271SOL    HW1 1820   7.699   6.949   6.640
33271SOL    HW2 1821   7.741   7.066   6.556
33272SOL     OW 1822   8.917   7.089   6.963
33272SOL    HW1 1823   8.973   7.169   6.972
33272SOL    HW2 1824   8.858   7.096   7.039
33273SOL     OW 1825   7.879   5.982   7.118
33273SOL    HW1 1826   7.955   5.923   7.101
33273SOL    HW2 1827   7.803   5.928   7.091
33274SOL     OW 1828   9.079   6.040   6.332
33274SOL    HW1 1829   9.011   6.068   6.269
33274SOL    HW2 1830   9.055   6.091   6.410
33275SOL     OW 1831   7.674   7.284   6.069
33275SOL    HW1 1832   7.697   7.368   6.115
33275SOL    HW2 1833   7.724   7.294   5.987
33276SOL     OW 1834   8.562   6.931   7.241
33276SOL    HW1 1835   8.609   6.936   7.324
33276SOL    HW2 1836   8.520   6.843   7.250
33277SOL     OW 1837   7.716   7.020   6.120
33277SOL    HW1 1838   7.701   7.117   6.118
33277SOL    HW2 1839   7.642   6.990   6.176
33278SOL     OW 1840   7.722   6.674   6.494
33278SOL    HW1 1841   7.711   6.595   6.550
33278SOL    HW2 1842   7.663   6.737   6.538
33279SOL     OW 1843   8.041   7.389   6.991
33279SOL    HW1 1844   7.976   7.359   7.056
33279SOL    HW2 1845   8.068   7.477   7.026
33280SOL     OW 1846   8.018   6.574   5.703
33280SOL    HW1 1847   8.067   6.625   5.635
33280SOL    HW2 1848   8.060   6.607   5.784
33281SOL     OW 1849   9.055   5.688   7.080
33281SOL    HW1 1850   9.051   5.768   7.025
33281SOL    HW2 1851   9.065   5.727   7.168
33282SOL     OW 1852   7.558   6.225   6.137
33282SOL    HW1 1853   7.526   6.133   6.146
33282SOL    HW2 1854   7.550   6.258   6.229
33283SOL     OW 1855   9.293   7.324   5.940
33283SOL    HW1 1856   9.368   7.306   6.000
33283SOL    HW2 1857   9.310   7.417   5.916
33284SOL     OW 1858   7.516   7.181   5.702
33284SOL    HW1 1859   7.503   7.087   5.721
33284SOL    HW2 1860   7.477   7.223   5.780
33285SOL     OW 1861   9.131   6.485   6.220
33285SOL    HW1 1862   9.208   6.451   6.172
33285SOL    HW2 1863   9.093   6.545   6.155
33286SOL     OW 1864   9.094   6.701   6.036
33286SOL    HW1 1865   9.183   6.699   5.998
33286SOL    HW2 1866   9.102   6.773   6.101
33287SOL     OW 1867   7.568   6.330   7.166
33287SOL    HW1 1868   7.657   6.362   7.189
33287SOL    HW2 1869   7.515   6.409   7.183
33288SOL     OW 1870   8.019   6.999   6.342
33288SOL    HW1 1871   7.986   6.906   6.347
33288SOL    HW2 1872   8.021   7.014   6.246
33289SOL     OW 1873   8.741   6.818   7.006
33289SOL    HW1 1874   8.772   6.744   6.950
33289SOL    HW2 1875   8.793   6.804   7.087
33290SOL     OW 1876   8.284   5.587   6.084
33290SOL    HW1 1877   8.308   5.681   6.074
33290SOL    HW2 1878   8.186   5.592   6.084
33291SOL     OW 1879   7.628   6.559   6.846
33291SOL    HW1 1880   7.716   6.519   6.833
33291SOL    HW2 1881   7.568   6.493   6.809
33292SOL     OW 1882   8.989   6.559   5.777
33292SOL    HW1 1883   8.910   6.512   5.808
33292SOL    HW2 1884   9.026   6.594   5.859
33293SOL     OW 1885   8.617   7.389   7.200
33293SOL    HW1 1886   8.634   7.460   7.136
33293SOL    HW2 1887   8.646   7.310   7.151
33294SOL     OW 1888   7.782   5.820   7.384
33294SOL    HW1 1889   7.847   5.891   7.384
33294SOL    HW2 1890   7.706   5.863   7.426
33295SOL     OW 1891   8.913   7.008   6.541
33295SOL    HW1 1892   8.857   7.027   6.619
33295SOL    HW2 1893   8.882   6.918   6.516
33296SOL     OW 1894   9.109   7.321   6.187
33296SOL    HW1 1895   9.098   7.285   6.098
33296SOL    HW2 1896   9.073   7.250   6.243
33297SOL     OW 1897   8.035   6.312   5.844
33297SOL    HW1 1898   8.033   6.394   5.793
33297SOL    HW2 1899   7.962   6.324   5.907
33298SOL     OW 1900   8.712   5.920   6.494
33298SOL    HW1 1901   8.623   5.887   6.514
33298SOL    HW2 1902   8.766   5.878   6.563
33299SOL     OW 1903   9.026   7.233   5.893
33299SOL    HW1 1904   9.121   7.250   5.891
33299SOL    HW2 1905   9.007   7.222   5.798
33300SOL     OW 1906   8.251   6.208   7.047
33300SOL    HW1 1907   8.232   6.171   7.136
33300SOL    HW2 1908   8.196   6.152   6.989
33301SOL     OW 1909   8.842   6.067   7.258
33301SOL    HW1 1910   8.851   6.123   7.337
33301SOL    HW2 1911   8.901   5.992   7.279
33302SOL     OW 1912   8.410   6.471   7.170
33302SOL    HW1 1913   8.449   6.389   7.132
33302SOL    HW2 1914   8.366   6.508   7.092
33303SOL     OW 1915   8.421   5.985   6.819
33303SOL    HW1 1916   8.333   5.998   6.857
33303SOL    HW2 1917   8.403   5.945   6.733
33304SOL     OW 1918   8.498   6.263   6.000
33304SOL    HW1 1919   8.500   6.284   6.095
33304SOL    HW2 1920   8.411   6.218   5.990
33305SOL     OW 1921   7.553   6.360   6.371
33305SOL    HW1 1922   7.620   6.380   6.438
33305SOL    HW2 1923   7.507   6.445   6.359
33306SOL     OW 1924   7.550   7.414   7.152
33306SOL    HW1 1925   7.565   7.400   7.248
33306SOL    HW2 1926   7.454   7.420   7.147
33307SOL     OW 1927   8.325   5.933   5.800
33307SOL    HW1 1928   8.357   5.993   5.731
33307SOL    HW2 1929   8.319   5.852   5.749
33308SOL     OW 1930   9.169   6.168   7.434
33308SOL    HW1 1931   9.127   6.244   7.389
33308SOL    HW2 1932   9.197   6.116   7.357
33309SOL     OW 1933   8.806   6.736   6.147
33309SOL    HW1 1934   8.886   6.727   6.093
33309SOL    HW2 1935   8.754   6.798   6.093
33310SOL     OW 1936   8.001   5.788   6.480
33310SOL    HW1 1937   8.010   5.803   6.576
33310SOL    HW2 1938   7.988   5.877   6.445
33311SOL     OW 1939   8.427   7.037   6.084
33311SOL    HW1 1940   8.387   7.093   6.014
33311SOL    HW2 1941   8.454   7.101   6.150
33312SOL     OW 1942   7.793   7.399   6.440
33312SOL    HW1 1943   7.862   7.355   6.390
33312SOL    HW2 1944   7.835   7.484   6.463
33313SOL     OW 1945   9.255   6.629   6.464
33313SOL    HW1 1946   9.203   6.608   6.385
33313SOL    HW2 1947   9.189   6.623   6.535
33314SOL     OW 1948   8.667   7.147   7.084
33314SOL    HW1 1949   8.643   7.082   7.151
33314SOL    HW2 1950   8.635   7.104   7.004
33315SOL     OW 1951   7.761   6.556   5.856
33315SOL    HW1 1952   7.826   6.564   5.785
33315SOL    HW2 1953   7.726   6.467   5.840
33316SOL     OW 1954   8.917   6.347   6.314
33316SOL    HW1 1955   8.928   6.312   6.404
33316SOL    HW2 1956   9.002   6.392   6.298
33317SOL     OW 1957   7.904   6.857   7.315
33317SOL    HW1 1958   7.864   6.856   7.225
33317SOL    HW2 1959   7.824   6.864   7.369
33318SOL     OW 1960   8.546   7.349   5.824
33318SOL    HW1 1961   8.471   7.304   5.866
33318SOL    HW2 1962   8.555   7.301   5.740
33319SOL     OW 1963   7.619   5.876   7.089
33319SOL    HW1 1964   7.547   5.932   7.123
33319SOL    HW2 1965   7.601   5.791   7.131
33320SOL     OW 1966   9.072   6.949   5.681
33320SOL    HW1 1967   9.030   7.031   5.653
33320SOL    HW2 1968   9.014   6.880   5.642
33321SOL     OW 1969   7.905   7.330   5.902
33321SOL    HW1 1970   7.954   7.378   5.971
33321SOL    HW2 1971   7.976   7.294   5.846
33322SOL     OW 1972   8.858   5.668   6.021
33322SOL    HW1 1973   8.857   5.632   5.930
33322SOL    HW2 1974   8.951   5.693   6.033
33323SOL     OW 1975   7.691   7.384   6.813
33323SOL    HW1 1976   7.742   7.314   6.855
33323SOL    HW2 1977   7.670   7.346   6.726
33324SOL     OW 1978   8.405   7.277   6.475
33324SOL    HW1 1979   8.494   7.239   6.475
33324SOL    HW2 1980   8.365   7.232   6.398
33325SOL     OW 1981   7.822   6.294   6.046
33325SOL    HW1 1982   7.847   6.201   6.058
33325SOL    HW2 1983   7.727   6.291   6.068
33326SOL     OW 1984   8.986   5.844   7.308
33326SOL    HW1 1985   8.986   5.844   7.407
33326SOL    HW2 1986   8.923   5.773   7.289
33327SOL     OW 1987   8.050   5.702   5.645
33327SOL    HW1 1988   8.125   5.648   5.674
33327SOL    HW2 1989   8.016   5.646   5.573
33328SOL     OW 1990   8.221   5.844   7.319
33328SOL    HW1 1991   8.301   5.789   7.332
33328SOL    HW2 1992   8.169   5.824   7.398
33329SOL     OW 1993   8.336   7.129   6.785
33329SOL    HW1 1994   8.342   7.108   6.691
33329SOL    HW2 1995   8.401   7.068   6.825
33330SOL     OW 1996   8.783   6.182   7.015
33330SOL    HW1 1997   8.818   6.147   7.099
33330SOL    HW2 1998   8.837   6.262   7.001
33331SOL     OW 1999   8.246   7.008   6.497
33331SOL    HW1 2000   8.339   6.994   6.471
33331SOL    HW2 2001   8.199   6.974   6.419
33332SOL     OW 2002   8.394   6.094   6.495
33332SOL    HW1 2003   8.372   6.086   6.399
33332SOL    HW2 2004   8.419   6.003   6.516
33333SOL     OW 2005   8.010   5.639   6.082
33333SOL    HW1 2006   7.932   5.648   6.139
33333SOL    HW2 2007   7.998   5.714   6.020
33334SOL     OW 2008   8.895   6.756   5.611
33334SOL    HW1 2009   8.925   6.684   5.669
33334SOL    HW2 2010   8.808   6.778   5.645
33335SOL     OW 2011   7.729   5.636   5.792
33335SOL    HW1 2012   7.787   5.702   5.753
33335SOL    HW2 2013   7.792   5.569   5.825
33336SOL     OW 2014   8.373   5.843   6.063
33336SOL    HW1 2015   8.356   5.884   5.976
33336SOL    HW2 2016   8.470   5.855   6.070
33337SOL     OW 2017   8.531   6.260   7.056
33337SOL    HW1 2018   8.480   6.178   7.055
33337SOL    HW2 2019   8.624   6.230   7.048
33338SOL     OW 2020   8.668   7.178   6.382
33338SOL    HW1 2021   8.679   7.236   6.305
33338SOL    HW2 2022   8.753   7.187   6.427
33339SOL     OW 2023   7.928   6.756   6.336
33339SOL    HW1 2024   7.852   6.723   6.389
33339SOL    HW2 2025   7.895   6.736   6.244
33340SOL     OW 2026   8.707   7.393   6.188
33340SOL    HW1 2027   8.762   7.451   6.133
33340SOL    HW2 2028   8.673   7.455   6.254
33341SOL     OW 2029   8.507   6.138   5.601
33341SOL    HW1 2030   8.454   6.219   5.586
33341SOL    HW2 2031   8.577   6.167   5.661
33342SOL     OW 2032   7.504   6.147   6.983
33342SOL    HW1 2033   7.598   6.138   6.961
33342SOL    HW2 2034   7.505   6.224   7.043
33343SOL     OW 2035   8.014   5.818   6.753
33343SOL    HW1 2036   8.058   5.744   6.799
33343SOL    HW2 2037   7.922   5.807   6.782
33344SOL     OW 2038   8.333   6.044   6.245
33344SOL    HW1 2039   8.282   6.098   6.184
33344SOL    HW2 2040   8.343   5.961   6.194
33345SOL     OW 2041   8.477   5.660   6.348
33345SOL    HW1 2042   8.431   5.646   6.264
33345SOL    HW2 2043   8.449   5.582   6.399
33346SOL     OW 2044   8.860   6.759   6.467
33346SOL    HW1 2045   8.819   6.675   6.493
33346SOL    HW2 2046   8.857   6.754   6.370
33347SOL     OW 2047   8.929   6.161   6.564
33347SOL    HW1 2048   8.867   6.089   6.580
33347SOL    HW2 2049   8.988   6.159   6.641
33348SOL     OW 2050   9.281   6.407   5.985
33348SOL    HW1 2051   9.342   6.353   6.040
33348SOL    HW2 2052   9.259   6.344   5.914
33349SOL     OW 2053   7.938   7.001   5.703
33349SOL    HW1 2054   7.854   6.992   5.753
33349SOL    HW2 2055   7.930   6.934   5.635
33350SOL     OW 2056   9.128   6.889   6.241
33350SOL    HW1 2057   9.226   6.888   6.246
33350SOL    HW2 2058   9.103   6.977   6.274
33351SOL     OW 2059   8.854   6.178   5.652
33351SOL    HW1 2060   8.799   6.145   5.727
33351SOL    HW2 2061   8.939   6.136   5.671
33352SOL     OW 2062   7.977   5.827   5.891
33352SOL    HW1 2063   8.010   5.789   5.808
33352SOL    HW2 2064   7.946   5.914   5.859
33353SOL     OW 2065   9.180   6.819   7.162
33353SOL    HW1 2066   9.266   6.775   7.174
33353SOL    HW2 2067   9.204   6.912   7.176
33354SOL     OW 2068   8.519   6.950   6.920
33354SOL    HW1 2069   8.442   6.913   6.968
33354SOL    HW2 2070   8.593   6.902   6.963
33355SOL     OW 2071   9.063   7.190   7.221
33355SOL    HW1 2072   9.065   7.226   7.131
33355SOL    HW2 2073   9.146   7.139   7.223
33356SOL     OW 2074   8.572   6.813   6.681
33356SOL    HW1 2075   8.515   6.846   6.751
33356SOL    HW2 2076   8.538   6.855   6.601
33357SOL     OW 2077   9.045   6.680   6.663
33357SOL    HW1 2078   9.055   6.741   6.739
33357SOL    HW2 2079   8.989   6.734   6.604
33358SOL     OW 2080   8.364   5.679   6.983
33358SOL    HW1 2081   8.392   5.659   6.892
33358SOL    HW2 2082   8.443   5.725   7.018
33359SOL     OW 2083   8.438   6.694   7.332
33359SOL    HW1 2084   8.346   6.717   7.351
33359SOL    HW2 2085   8.430   6.620   7.269
33360SOL     OW 2086   8.155   6.646   5.930
33360SOL    HW1 2087   8.144   6.624   6.024
33360SOL    HW2 2088   8.230   6.587   5.905
33361SOL     OW 2089   7.870   6.392   6.853
33361SOL    HW1 2090   7.943   6.392   6.918
33361SOL    HW2 2091   7.829   6.305   6.867
33362SOL     OW 2092   8.729   5.976   6.849
33362SOL    HW1 2093   8.748   6.053   6.906
33362SOL    HW2 2094   8.638   5.991   6.820
33363SOL     OW 2095   7.522   7.161   6.931
33363SOL    HW1 2096   7.520   7.255   6.911
33363SOL    HW2 2097   7.617   7.138   6.924
33364SOL     OW 2098   7.840   6.697   6.096
33364SOL    HW1 2099   7.851   6.754   6.020
33364SOL    HW2 2100   7.816   6.613   6.053
33365SOL     OW 2101   7.996   6.117   6.445
33365SOL    HW1 2102   8.024   6.175   6.372
33365SOL    HW2 2103   8.057   6.144   6.515
33366SOL     OW 2104   8.672   6.920   5.975
33366SOL    HW1 2105   8.716   7.000   6.011
33366SOL    HW2 2106   8.581   6.932   6.007
33367SOL     OW 2107   8.757   7.057   6.757
33367SOL    HW1 2108   8.818   7.062   6.833
33367SOL    HW2 2109   8.697   6.984   6.782
33368SOL     OW 2110   9.016   6.186   6.050
33368SOL    HW1 2111   8.966   6.242   6.113
33368SOL    HW2 2112   9.056   6.252   5.992
33369SOL     OW 2113   7.787   7.099   6.892
33369SOL    HW1 2114   7.783   7.063   6.801
33369SOL    HW2 2115   7.879   7.130   6.896
33370SOL     OW 2116   7.887   6.316   7.209
33370SOL    HW1 2117   7.942   6.360   7.142
33370SOL    HW2 2118   7.917   6.224   7.202
33371SOL     OW 2119   9.077   6.360   7.276
33371SOL    HW1 2120   8.989   6.400   7.275
33371SOL    HW2 2121   9.119   6.402   7.198
33372SOL     OW 2122   8.442   5.694   7.344
33372SOL    HW1 2123   8.506   5.764   7.330
33372SOL    HW2 2124   8.484   5.619   7.298
33373SOL     OW 2125   7.942   5.602   7.340
33373SOL    HW1 2126   7.903   5.542   7.274
33373SOL    HW2 2127   7.876   5.674   7.342
33374SOL     OW 2128   8.013   6.475   6.628
33374SOL    HW1 2129   8.052   6.562   6.639
33374SOL    HW2 2130   7.965   6.459   6.711
33375SOL     OW 2131   8.808   6.443   6.602
33375SOL    HW1 2132   8.723   6.410   6.569
33375SOL    HW2 2133   8.857   6.360   6.615
33376SOL     OW 2134   8.678   6.099   5.852
33376SOL    HW1 2135   8.679   6.026   5.915
33376SOL    HW2 2136   8.617   6.161   5.896
33377SOL     OW 2137   7.745   5.797   6.837
33377SOL    HW1 2138   7.698   5.823   6.919
33377SOL    HW2 2139   7.721   5.703   6.831
33378SOL     OW 2140   7.491   6.889   6.874
33378SOL    HW1 2141   7.506   6.831   6.952
33378SOL    HW2 2142   7.485   6.978   6.912
33379SOL     OW 2143   8.173   6.240   6.633
33379SOL    HW1 2144   8.253   6.228   6.579
33379SOL    HW2 2145   8.140   6.329   6.609
33380SOL     OW 2146   9.211   6.538   7.430
33380SOL    HW1 2147   9.168   6.471   7.374
33380SOL    HW2 2148   9.145   6.547   7.501
33381SOL     OW 2149   7.751   5.651   6.196
33381SOL    HW1 2150   7.719   5.739   6.222
33381SOL    HW2 2151   7.762   5.608   6.283
33382SOL     OW 2152   9.047   5.958   5.925
33382SOL    HW1 2153   9.074   5.888   5.986
33382SOL    HW2 2154   9.033   6.035   5.985
33383SOL     OW 2155   8.511   6.338   6.561
33383SOL    HW1 2156   8.488   6.357   6.654
33383SOL    HW2 2157   8.488   6.244   6.554
33384SOL     OW 2158   8.426   7.154   7.291
33384SOL    HW1 2159   8.415   7.204   7.207
33384SOL    HW2 2160   8.453   7.066   7.258
33385SOL     OW 2161   9.305   7.076   7.187
33385SOL    HW1 2162   9.330   7.101   7.096
33385SOL    HW2 2163   9.386   7.100   7.236
33386SOL     OW 2164   7.798   6.477   7.394
33386SOL    HW1 2165   7.883   6.497   7.437
33386SOL    HW2 2166   7.825   6.406   7.331
33387SOL     OW 2167   8.947   5.838   5.704
33387SOL    HW1 2168   8.877   5.779   5.736
33387SOL    HW2 2169   8.981   5.879   5.786
33388SOL     OW 2170   8.739   6.425   5.617
33388SOL    HW1 2171   8.778   6.336   5.626
33388SOL    HW2 2172   8.773   6.452   5.529
33389SOL     OW 2173   8.505   6.949   6.436
33389SOL    HW1 2174   8.516   6.872   6.375
33389SOL    HW2 2175   8.581   7.006   6.412
33390SOL     OW 2176   7.728   6.412   6.585
33390SOL    HW1 2177   7.819   6.431   6.557
33390SOL    HW2 2178   7.734   6.319   6.611
33391SOL     OW 2179   7.765   6.129   6.588
33391SOL    HW1 2180   7.742   6.035   6.575
33391SOL    HW2 2181   7.836   6.141   6.521
33392SOL     OW 2182   8.603   5.954   7.278
33392SOL    HW1 2183   8.557   6.004   7.348
33392SOL    HW2 2184   8.690   5.999   7.276
33393SOL     OW 2185   8.609   5.784   7.067
33393SOL    HW1 2186   8.609   5.847   7.141
33393SOL    HW2 2187   8.656   5.834   6.998
33394SOL     OW 2188   7.451   6.918   5.790
33394SOL    HW1 2189   7.360   6.924   5.753
33394SOL    HW2 2190   7.453   6.824   5.819
33395SOL     OW 2191   7.550   7.357   6.542
33395SOL    HW1 2192   7.519   7.284   6.483
33395SOL    HW2 2193   7.637   7.379   6.503
33396SOL     OW 2194   8.426   6.360   6.830
33396SOL    HW1 2195   8.475   6.331   6.909
33396SOL    HW2 2196   8.339   6.323   6.848
33397SOL     OW 2197   7.472   6.091   6.692
33397SOL    HW1 2198   7.552   6.094   6.638
33397SOL    HW2 2199   7.506   6.123   6.777
33398SOL     OW 2200   7.667   6.099   7.298
33398SOL    HW1 2201   7.721   6.055   7.231
33398SOL    HW2 2202   7.622   6.169   7.248
33399SOL     OW 2203   8.836   6.500   7.241
33399SOL    HW1 2204   8.859   6.595   7.241
33399SOL    HW2 2205   8.834   6.480   7.146
33400SOL     OW 2206   8.255   6.161   5.944
33400SOL    HW1 2207   8.264   6.081   5.889
33400SOL    HW2 2208   8.174   6.201   5.907
33401SOL     OW 2209   9.087   6.207   6.793
33401SOL    HW1 2210   9.064   6.141   6.859
33401SOL    HW2 2211   9.171   6.173   6.757
33402SOL     OW 2212   7.702   7.121   7.302
33402SOL    HW1 2213   7.680   7.185   7.372
33402SOL    HW2 2214   7.705   7.038   7.353
33403SOL     OW 2215   8.115   6.078   6.845
33403SOL    HW1 2216   8.079   5.996   6.807
33403SOL    HW2 2217   8.126   6.135   6.767
33404SOL     OW 2218   8.366   7.281   7.065
33404SOL    HW1 2219   8.363   7.251   6.974
33404SOL    HW2 2220   8.370   7.378   7.056
33405SOL     OW 2221   7.905   6.069   5.792
33405SOL    HW1 2222   7.965   6.144   5.783
33405SOL    HW2 2223   7.819   6.111   5.774
33406SOL     OW 2224   7.562   6.710   7.056
33406SOL    HW1 2225   7.570   6.654   7.137
33406SOL    HW2 2226   7.582   6.647   6.984
33407SOL     OW 2227   8.775   6.618   6.821
33407SOL    HW1 2228   8.792   6.563   6.742
33407SOL    HW2 2229   8.707   6.678   6.788
33408SOL     OW 2230   8.768   6.439   5.888
33408SOL    HW1 2231   8.685   6.411   5.928
33408SOL    HW2 2232   8.745   6.440   5.793
33409SOL     OW 2233   9.204   7.333   6.716
33409SOL    HW1 2234   9.279   7.355   6.656
33409SOL    HW2 2235   9.193   7.237   6.698
33410SOL     OW 2236   8.687   7.315   6.700
33410SOL    HW1 2237   8.773   7.341   6.664
33410SOL    HW2 2238   8.700   7.219   6.713
33411SOL     OW 2239   7.559   6.847   6.622
33411SOL    HW1 2240   7.522   6.857   6.714
33411SOL    HW2 2241   7.485   6.802   6.577
33412SOL     OW 2242   8.144   7.223   7.327
33412SOL    HW1 2243   8.101   7.308   7.307
33412SOL    HW2 2244   8.235   7.235   7.294
33413SOL     OW 2245   9.129   5.721   6.078
33413SOL    HW1 2246   9.204   5.706   6.019
33413SOL    HW2 2247   9.129   5.641   6.134
33414SOL     OW 2248   8.810   7.157   6.064
33414SOL    HW1 2249   8.875   7.175   5.993
33414SOL    HW2 2250   8.775   7.246   6.082
33415SOL     OW 2251   7.600   7.382   7.413
33415SOL    HW1 2252   7.559   7.311   7.466
33415SOL    HW2 2253   7.648   7.431   7.483
33416SOL     OW 2254   8.694   6.506   6.250
33416SOL    HW1 2255   8.775   6.457   6.275
33416SOL    HW2 2256   8.734   6.583   6.204
33417SOL     OW 2257   8.265   6.845   7.021
33417SOL    HW1 2258   8.230   6.887   7.103
33417SOL    HW2 2259   8.196   6.871   6.958
33418SOL     OW 2260   8.112   7.203   5.742
33418SOL    HW1 2261   8.131   7.215   5.647
33418SOL    HW2 2262   8.050   7.127   5.737
33419SOL     OW 2263   9.074   7.303   6.969
33419SOL    HW1 2264   9.119   7.318   6.884
33419SOL    HW2 2265   9.059   7.394   7.001
33420SOL     OW 2266   9.288   5.753   6.565
33420SOL    HW1 2267   9.312   5.668   6.523
33420SOL    HW2 2268   9.201   5.775   6.524
33421SOL     OW 2269   7.695   5.910   6.293
33421SOL    HW1 2270   7.606   5.944   6.274
33421SOL    HW2 2271   7.695   5.903   6.390
33422SOL     OW 2272   8.640   7.211   5.602
33422SOL    HW1 2273   8.641   7.116   5.621
33422SOL    HW2 2274   8.578   7.218   5.527
33423SOL     OW 2275   8.272   6.585   6.968
33423SOL    HW1 2276   8.312   6.586   6.880
33423SOL    HW2 2277   8.273   6.679   6.994
33424SOL     OW 2278   8.356   6.495   5.854
33424SOL    HW1 2279   8.430   6.527   5.800
33424SOL    HW2 2280   8.391   6.414   5.894
33425SOL     OW 2281   8.975   7.206   5.623
33425SOL    HW1 2282   8.879   7.214   5.616
33425SOL    HW2 2283   9.002   7.209   5.529
33426SOL     OW 2284   7.791   6.857   7.073
33426SOL    HW1 2285   7.775   6.928   7.010
33426SOL    HW2 2286   7.711   6.802   7.064
33427SOL     OW 2287   9.049   6.894   6.848
33427SOL    HW1 2288   9.103   6.868   6.923
33427SOL    HW2 2289   8.990   6.962   6.887
33428SOL     OW 2290   8.493   6.702   6.303
33428SOL    HW1 2291   8.428   6.644   6.345
33428SOL    HW2 2292   8.560   6.638   6.274
33429SOL     OW 2293   8.477   5.813   6.571
33429SOL    HW1 2294   8.468   5.770   6.483
33429SOL    HW2 2295   8.479   5.736   6.630
33430SOL     OW 2296   8.077   7.079   6.086
33430SOL    HW1 2297   8.124   7.033   6.015
33430SOL    HW2 2298   7.996   7.108   6.042
33431SOL     OW 2299   9.156   5.956   6.966
33431SOL    HW1 2300   9.220   6.029   6.963
33431SOL    HW2 2301   9.203   5.887   6.915
33432SOL     OW 2302   7.704   6.966   5.857
33432SOL    HW1 2303   7.609   6.949   5.846
33432SOL    HW2 2304   7.711   6.983   5.953
33433SOL     OW 2305   7.578   6.590   7.289
33433SOL    HW1 2306   7.504   6.577   7.351
33433SOL    HW2 2307   7.656   6.557   7.339
33434SOL     OW 2308   8.115   5.771   7.074
33434SOL    HW1 2309   8.201   5.735   7.045
33434SOL    HW2 2310   8.139   5.809   7.161
33435SOL     OW 2311   7.495   5.929   5.647
33435SOL    HW1 2312   7.408   5.890   5.630
33435SOL    HW2 2313   7.516   5.968   5.562
33436SOL     OW 2314   8.903   6.442   6.979
33436SOL    HW1 2315   8.856   6.505   6.920
33436SOL    HW2 2316   8.995   6.469   6.967
33437SOL     OW 2317   7.490   5.752   5.885
33437SOL    HW1 2318   7.475   5.825   5.823
33437SOL    HW2 2319   7.578   5.721   5.856
33438SOL     OW 2320   8.658   6.934   5.693
33438SOL    HW1 2321   8.572   6.890   5.696
33438SOL    HW2 2322   8.681   6.937   5.788
33439SOL     OW 2323   8.070   6.403   7.024
33439SOL    HW1 2324   8.128   6.481   7.016
33439SOL    HW2 2325   8.138   6.334   7.032
33440SOL     OW 2326   8.948   7.347   6.552
33440SOL    HW1 2327   8.985   7.388   6.473
33440SOL    HW2 2328   9.027   7.334   6.606
33441SOL     OW 2329   8.178   6.116   7.281
33441SOL    HW1 2330   8.216   6.178   7.345
33441SOL    HW2 2331   8.192   6.029   7.320
33442SOL     OW 2332   8.909   6.765   7.209
33442SOL    HW1 2333   8.902   6.773   7.306
33442SOL    HW2 2334   9.004   6.787   7.194
33443SOL     OW 2335   7.816   7.319   7.149
33443SOL    HW1 2336   7.732   7.365   7.135
33443SOL    HW2 2337   7.786   7.234   7.185
33444SOL     OW 2338   9.157   6.468   6.823
33444SOL    HW1 2339   9.128   6.379   6.796
33444SOL    HW2 2340   9.114   6.525   6.757
33445SOL     OW 2341   8.652   5.907   6.066
33445SOL    HW1 2342   8.721   5.840   6.056
33445SOL    HW2 2343   8.690   5.964   6.137
33446SOL     OW 2344   8.048   6.340   6.257
33446SOL    HW1 2345   8.078   6.431   6.242
33446SOL    HW2 2346   7.977   6.330   6.192
33447SOL     OW 2347   9.213   5.967   7.227
33447SOL    HW1 2348   9.182   5.977   7.135
33447SOL    HW2 2349   9.139   5.917   7.266
33448SOL     OW 2350   9.188   6.523   7.086
33448SOL    HW1 2351   9.201   6.618   7.079
33448SOL    HW2 2352   9.205   6.493   6.994
33449SOL     OW 2353   8.306   6.951   5.626
33449SOL    HW1 2354   8.280   6.978   5.715
33449SOL    HW2 2355   8.326   7.034   5.581
33450SOL     OW 2356   8.087   7.376   6.484
33450SOL    HW1 2357   8.051   7.468   6.479
33450SOL    HW2 2358   8.182   7.394   6.490
33451SOL     OW 2359   8.328   6.527   6.429
33451SOL    HW1 2360   8.379   6.454   6.470
33451SOL    HW2 2361   8.315   6.588   6.502
33452SOL     OW 2362   8.553   6.599   5.691
33452SOL    HW1 2363   8.506   6.637   5.615
33452SOL    HW2 2364   8.609   6.532   5.647
33453SOL     OW 2365   9.313   7.145   6.432
33453SOL    HW1 2366   9.221   7.140   6.406
33453SOL    HW2 2367   9.322   7.074   6.497
33454SOL     OW 2368   7.681   6.903   7.454
33454SOL    HW1 2369   7.610   6.841   7.432
33454SOL    HW2 2370   7.669   6.914   7.550
33455SOL     OW 2371   7.533   6.850   6.234
33455SOL    HW1 2372   7.519   6.787   6.305
33455SOL    HW2 2373   7.583   6.798   6.170
33456SOL     OW 2374   8.115   6.987   7.197
33456SOL    HW1 2375   8.046   6.933   7.238
33456SOL    HW2 2376   8.109   7.070   7.247
33457SOL     OW 2377   9.278   5.753   6.824
33457SOL    HW1 2378   9.308   5.662   6.832
33457SOL    HW2 2379   9.278   5.764   6.726
33458SOL     OW 2380   7.907   6.021   6.118
33458SOL    HW1 2381   7.933   5.954   6.053
33458SOL    HW2 2382   7.846   5.974   6.178
33459SOL     OW 2383   9.163   7.074   6.669
33459SOL    HW1 2384   9.081   7.045   6.626
33459SOL    HW2 2385   9.162   7.015   6.746
33460SOL     OW 2386   7.767   6.122   6.865
33460SOL    HW1 2387   7.843   6.078   6.908
33460SOL    HW2 2388   7.779   6.099   6.771
33461SOL     OW 2389   8.259   7.203   6.259
33461SOL    HW1 2390   8.257   7.282   6.202
33461SOL    HW2 2391   8.202   7.142   6.209
33462SOL     OW 2392   8.872   5.824   6.682
33462SOL    HW1 2393   8.908   5.748   6.729
33462SOL    HW2 2394   8.825   5.873   6.753
33463SOL     OW 2395   8.464   5.588   6.737
33463SOL    HW1 2396   8.412   5.510   6.713
33463SOL    HW2 2397   8.555   5.551   6.738
33464SOL     OW 2398   8.235   6.923   5.905
33464SOL    HW1 2399   8.203   6.833   5.892
33464SOL    HW2 2400   8.304   6.910   5.971
33465SOL     OW 2401   8.048   7.159   6.835
33465SOL    HW1 2402   8.047   7.239   6.892
33465SOL    HW2 2403   8.144   7.141   6.834
33466SOL     OW 2404   8.761   5.614   5.752
33466SOL    HW1 2405   8.768   5.548   5.681
33466SOL    HW2 2406   8.673   5.590   5.788
33467SOL     OW 2407   8.753   6.060   6.266
33467SOL    HW1 2408   8.691   6.135   6.267
33467SOL    HW2 2409   8.733   6.017   6.352
33468SOL     OW 2410   9.048   5.792   6.453
33468SOL    HW1 2411   8.969   5.805   6.507
33468SOL    HW2 2412   9.053   5.875   6.402
33469SOL     OW 2413   7.508   6.676   5.906
33469SOL    HW1 2414   7.603   6.662   5.890
33469SOL    HW2 2415   7.476   6.584   5.902
33470SOL     OW 2416   8.322   7.236   5.921
33470SOL    HW1 2417   8.245   7.219   5.863
33470SOL    HW2 2418   8.298   7.316   5.970
33471SOL     OW 2419   7.683   6.225   7.580
33471SOL    HW1 2420   7.592   6.207   7.609
33471SOL    HW2 2421   7.683   6.202   7.486
33472SOL     OW 2422   7.674   5.873   8.450
33472SOL    HW1 2423   7.697   5.846   8.541
33472SOL    HW2 2424   7.587   5.829   8.439
33473SOL     OW 2425   7.454   5.994   8.074
33473SOL    HW1 2426   7.373   6.017   8.125
33473SOL    HW2 2427   7.428   5.910   8.035
33474SOL     OW 2428   8.013   6.875   8.646
33474SOL    HW1 2429   7.925   6.871   8.605
33474SOL    HW2 2430   8.020   6.969   8.671
33475SOL     OW 2431   8.974   7.121   8.158
33475SOL    HW1 2432   8.941   7.097   8.246
33475SOL    HW2 2433   8.897   7.116   8.098
33476SOL     OW 2434   8.575   6.269   8.152
33476SOL    HW1 2435   8.607   6.359   8.133
33476SOL    HW2 2436   8.538   6.280   8.241
33477SOL     OW 2437   9.220   6.200   7.691
33477SOL    HW1 2438   9.197   6.189   7.597
33477SOL    HW2 2439   9.172   6.126   7.731
33478SOL     OW 2440   8.191   6.746   8.488
33478SOL    HW1 2441   8.127   6.791   8.546
33478SOL    HW2 2442   8.227   6.820   8.437
33479SOL     OW 2443   8.333   6.347   9.254
33479SOL    HW1 2444   8.307   6.405   9.327
33479SOL    HW2 2445   8.353   6.409   9.182
33480SOL     OW 2446   8.134   6.612   8.107
33480SOL    HW1 2447   8.194   6.584   8.177
33480SOL    HW2 2448   8.067   6.662   8.156
33481SOL     OW 2449   8.139   6.742   9.251
33481SOL    HW1 2450   8.180   6.827   9.275
33481SOL    HW2 2451   8.050   6.768   9.222
33482SOL     OW 2452   7.767   7.015   8.522
33482SOL    HW1 2453   7.697   6.969   8.472
33482SOL    HW2 2454   7.815   7.066   8.455
33483SOL     OW 2455   8.928   7.078   8.828
33483SOL    HW1 2456   8.973   7.165   8.832
33483SOL    HW2 2457   8.855   7.091   8.890
33484SOL     OW 2458   7.874   5.978   8.978
33484SOL    HW1 2459   7.948   5.918   8.961
33484SOL    HW2 2460   7.796   5.924   8.957
33485SOL     OW 2461   9.070   6.033   8.187
33485SOL    HW1 2462   8.999   6.061   8.128
33485SOL    HW2 2463   9.074   6.106   8.249
33486SOL     OW 2464   7.668   7.297   7.926
33486SOL    HW1 2465   7.692   7.376   7.979
33486SOL    HW2 2466   7.728   7.306   7.850
33487SOL     OW 2467   8.570   6.934   9.111
33487SOL    HW1 2468   8.613   6.939   9.198
33487SOL    HW2 2469   8.526   6.847   9.118
33488SOL     OW 2470   7.699   7.021   7.983
33488SOL    HW1 2471   7.693   7.118   7.986
33488SOL    HW2 2472   7.627   6.994   8.041
33489SOL     OW 2473   7.718   6.668   8.349
33489SOL    HW1 2474   7.714   6.596   8.413
33489SOL    HW2 2475   7.665   6.736   8.393
33490SOL     OW 2476   8.043   7.380   8.853
33490SOL    HW1 2477   7.973   7.353   8.914
33490SOL    HW2 2478   8.067   7.468   8.886
33491SOL     OW 2479   8.025   6.575   7.564
33491SOL    HW1 2480   8.075   6.621   7.494
33491SOL    HW2 2481   8.067   6.612   7.644
33492SOL     OW 2482   9.051   5.690   8.941
33492SOL    HW1 2483   9.048   5.769   8.886
33492SOL    HW2 2484   9.063   5.728   9.030
33493SOL     OW 2485   7.558   6.246   8.015
33493SOL    HW1 2486   7.528   6.153   8.027
33493SOL    HW2 2487   7.556   6.281   8.106
33494SOL     OW 2488   9.293   7.321   7.801
33494SOL    HW1 2489   9.365   7.304   7.865
33494SOL    HW2 2490   9.312   7.412   7.774
33495SOL     OW 2491   7.513   7.178   7.565
33495SOL    HW1 2492   7.497   7.084   7.584
33495SOL    HW2 2493   7.482   7.221   7.647
33496SOL     OW 2494   9.128   6.504   8.081
33496SOL    HW1 2495   9.205   6.467   8.035
33496SOL    HW2 2496   9.096   6.568   8.015
33497SOL     OW 2497   9.096   6.708   7.889
33497SOL    HW1 2498   9.187   6.703   7.854
33497SOL    HW2 2499   9.103   6.779   7.955
33498SOL     OW 2500   7.569   6.326   9.032
33498SOL    HW1 2501   7.657   6.362   9.049
33498SOL    HW2 2502   7.513   6.399   9.060
33499SOL     OW 2503   8.050   7.000   8.210
33499SOL    HW1 2504   8.013   6.910   8.224
33499SOL    HW2 2505   8.039   7.008   8.113
33500SOL     OW 2506   8.740   6.825   8.874
33500SOL    HW1 2507   8.766   6.753   8.814
33500SOL    HW2 2508   8.801   6.815   8.950
33501SOL     OW 2509   8.275   5.589   7.935
33501SOL    HW1 2510   8.311   5.680   7.931
33501SOL    HW2 2511   8.180   5.606   7.943
33502SOL     OW 2512   7.622   6.566   8.706
33502SOL    HW1 2513   7.714   6.535   8.695
33502SOL    HW2 2514   7.570   6.494   8.671
33503SOL     OW 2515   8.999   6.543   7.630
33503SOL    HW1 2516   8.915   6.505   7.663
33503SOL    HW2 2517   9.036   6.581   7.711
33504SOL     OW 2518   8.623   7.391   9.064
33504SOL    HW1 2519   8.625   7.453   8.990
33504SOL    HW2 2520   8.647   7.307   9.020
33505SOL     OW 2521   7.790   5.814   9.231
33505SOL    HW1 2522   7.850   5.889   9.239
33505SOL    HW2 2523   7.710   5.850   9.273
33506SOL     OW 2524   8.917   7.015   8.411
33506SOL    HW1 2525   8.853   7.033   8.483
33506SOL    HW2 2526   8.889   6.926   8.382
33507SOL     OW 2527   9.115   7.315   8.053
33507SOL    HW1 2528   9.100   7.285   7.962
33507SOL    HW2 2529   9.069   7.245   8.103
33508SOL     OW 2530   8.042   6.303   7.706
33508SOL    HW1 2531   8.039   6.392   7.668
33508SOL    HW2 2532   7.974   6.306   7.776
33509SOL     OW 2533   8.711   5.954   8.389
33509SOL    HW1 2534   8.624   5.910   8.396
33509SOL    HW2 2535   8.769   5.895   8.441
33510SOL     OW 2536   9.024   7.235   7.756
33510SOL    HW1 2537   9.118   7.255   7.763
33510SOL    HW2 2538   9.017   7.225   7.658
33511SOL     OW 2539   8.266   6.215   8.901
33511SOL    HW1 2540   8.241   6.185   8.992
33511SOL    HW2 2541   8.218   6.149   8.847
33512SOL     OW 2542   8.848   6.064   9.126
33512SOL    HW1 2543   8.847   6.116   9.209
33512SOL    HW2 2544   8.900   5.985   9.151
33513SOL     OW 2545   8.431   6.472   9.020
33513SOL    HW1 2546   8.458   6.384   8.988
33513SOL    HW2 2547   8.377   6.505   8.945
33514SOL     OW 2548   8.429   5.994   8.678
33514SOL    HW1 2549   8.336   6.015   8.695
33514SOL    HW2 2550   8.426   5.941   8.598
33515SOL     OW 2551   8.491   6.267   7.857
33515SOL    HW1 2552   8.498   6.288   7.951
33515SOL    HW2 2553   8.404   6.222   7.852
33516SOL     OW 2554   7.550   6.391   8.249
33516SOL    HW1 2555   7.624   6.394   8.312
33516SOL    HW2 2556   7.504   6.474   8.269
33517SOL     OW 2557   7.551   7.420   9.015
33517SOL    HW1 2558   7.562   7.398   9.111
33517SOL    HW2 2559   7.456   7.413   9.004
33518SOL     OW 2560   8.331   5.965   7.646
33518SOL    HW1 2561   8.378   6.022   7.583
33518SOL    HW2 2562   8.353   5.877   7.613
33519SOL     OW 2563   9.178   6.186   9.289
33519SOL    HW1 2564   9.133   6.256   9.237
33519SOL    HW2 2565   9.202   6.123   9.220
33520SOL     OW 2566   8.808   6.735   8.012
33520SOL    HW1 2567   8.885   6.725   7.954
33520SOL    HW2 2568   8.754   6.797   7.960
33521SOL     OW 2569   7.997   5.776   8.340
33521SOL    HW1 2570   8.004   5.796   8.435
33521SOL    HW2 2571   7.997   5.864   8.300
33522SOL     OW 2572   8.431   7.028   7.930
33522SOL    HW1 2573   8.389   7.090   7.867
33522SOL    HW2 2574   8.442   7.081   8.009
33523SOL     OW 2575   7.791   7.401   8.304
33523SOL    HW1 2576   7.841   7.320   8.326
33523SOL    HW2 2577   7.857   7.471   8.319
33524SOL     OW 2578   9.244   6.624   8.320
33524SOL    HW1 2579   9.197   6.608   8.236
33524SOL    HW2 2580   9.171   6.630   8.384
33525SOL     OW 2581   8.671   7.145   8.951
33525SOL    HW1 2582   8.645   7.079   9.016
33525SOL    HW2 2583   8.623   7.115   8.873
33526SOL     OW 2584   7.753   6.529   7.697
33526SOL    HW1 2585   7.834   6.554   7.652
33526SOL    HW2 2586   7.724   6.453   7.644
33527SOL     OW 2587   8.930   6.337   8.164
33527SOL    HW1 2588   8.930   6.315   8.258
33527SOL    HW2 2589   9.008   6.396   8.156
33528SOL     OW 2590   7.901   6.861   9.175
33528SOL    HW1 2591   7.859   6.869   9.087
33528SOL    HW2 2592   7.822   6.867   9.232
33529SOL     OW 2593   8.531   7.362   7.690
33529SOL    HW1 2594   8.465   7.308   7.736
33529SOL    HW2 2595   8.547   7.311   7.609
33530SOL     OW 2596   7.618   5.876   8.946
33530SOL    HW1 2597   7.547   5.934   8.978
33530SOL    HW2 2598   7.600   5.793   8.992
33531SOL     OW 2599   9.068   6.946   7.547
33531SOL    HW1 2600   9.029   7.029   7.515
33531SOL    HW2 2601   9.009   6.879   7.507
33532SOL     OW 2602   7.903   7.330   7.765
33532SOL    HW1 2603   7.952   7.375   7.836
33532SOL    HW2 2604   7.974   7.295   7.709
33533SOL     OW 2605   8.837   5.713   7.897
33533SOL    HW1 2606   8.829   5.667   7.811
33533SOL    HW2 2607   8.933   5.717   7.909
33534SOL     OW 2608   7.700   7.384   8.672
33534SOL    HW1 2609   7.748   7.310   8.712
33534SOL    HW2 2610   7.682   7.351   8.583
33535SOL     OW 2611   8.404   7.284   8.334
33535SOL    HW1 2612   8.486   7.235   8.348
33535SOL    HW2 2613   8.358   7.230   8.266
33536SOL     OW 2614   7.850   6.274   7.912
33536SOL    HW1 2615   7.869   6.180   7.933
33536SOL    HW2 2616   7.755   6.278   7.931
33537SOL     OW 2617   8.986   5.836   9.179
33537SOL    HW1 2618   8.985   5.838   9.278
33537SOL    HW2 2619   8.926   5.762   9.162
33538SOL     OW 2620   8.073   5.715   7.541
33538SOL    HW1 2621   8.144   5.655   7.566
33538SOL    HW2 2622   8.024   5.663   7.474
33539SOL     OW 2623   8.220   5.855   9.184
33539SOL    HW1 2624   8.299   5.798   9.196
33539SOL    HW2 2625   8.167   5.831   9.261
33540SOL     OW 2626   8.334   7.124   8.643
33540SOL    HW1 2627   8.319   7.100   8.550
33540SOL    HW2 2628   8.396   7.056   8.673
33541SOL     OW 2629   8.792   6.161   8.887
33541SOL    HW1 2630   8.822   6.125   8.974
33541SOL    HW2 2631   8.835   6.247   8.885
33542SOL     OW 2632   8.279   6.996   8.387
33542SOL    HW1 2633   8.365   6.977   8.344
33542SOL    HW2 2634   8.219   7.002   8.311
33543SOL     OW 2635   8.381   6.114   8.355
33543SOL    HW1 2636   8.354   6.105   8.260
33543SOL    HW2 2637   8.404   6.023   8.375
33544SOL     OW 2638   8.003   5.639   7.949
33544SOL    HW1 2639   7.923   5.646   8.005
33544SOL    HW2 2640   7.991   5.717   7.890
33545SOL     OW 2641   8.893   6.756   7.471
33545SOL    HW1 2642   8.923   6.680   7.525
33545SOL    HW2 2643   8.808   6.780   7.512
33546SOL     OW 2644   7.729   5.635   7.642
33546SOL    HW1 2645   7.790   5.706   7.615
33546SOL    HW2 2646   7.791   5.571   7.682
33547SOL     OW 2647   8.378   5.840   7.938
33547SOL    HW1 2648   8.358   5.888   7.856
33547SOL    HW2 2649   8.475   5.854   7.943
33548SOL     OW 2650   8.543   6.247   8.926
33548SOL    HW1 2651   8.470   6.184   8.922
33548SOL    HW2 2652   8.621   6.191   8.917
33549SOL     OW 2653   8.677   7.164   8.243
33549SOL    HW1 2654   8.672   7.222   8.165
33549SOL    HW2 2655   8.755   7.199   8.288
33550SOL     OW 2656   7.925   6.756   8.198
33550SOL    HW1 2657   7.850   6.720   8.250
33550SOL    HW2 2658   7.894   6.738   8.106
33551SOL     OW 2659   8.709   7.402   8.050
33551SOL    HW1 2660   8.760   7.465   7.995
33551SOL    HW2 2661   8.667   7.461   8.114
33552SOL     OW 2662   8.509   6.115   7.474
33552SOL    HW1 2663   8.461   6.198   7.455
33552SOL    HW2 2664   8.579   6.141   7.536
33553SOL     OW 2665   7.509   6.144   8.844
33553SOL    HW1 2666   7.603   6.125   8.827
33553SOL    HW2 2667   7.515   6.222   8.902
33554SOL     OW 2668   8.015   5.815   8.611
33554SOL    HW1 2669   8.062   5.747   8.660
33554SOL    HW2 2670   7.924   5.805   8.646
33555SOL     OW 2671   8.319   6.055   8.106
33555SOL    HW1 2672   8.274   6.101   8.034
33555SOL    HW2 2673   8.339   5.968   8.066
33556SOL     OW 2674   8.474   5.657   8.217
33556SOL    HW1 2675   8.427   5.640   8.134
33556SOL    HW2 2676   8.450   5.579   8.270
33557SOL     OW 2677   8.869   6.768   8.327
33557SOL    HW1 2678   8.794   6.706   8.333
33557SOL    HW2 2679   8.882   6.772   8.231
33558SOL     OW 2680   8.899   6.169   8.457
33558SOL    HW1 2681   8.844   6.089   8.451
33558SOL    HW2 2682   8.971   6.143   8.518
33559SOL     OW 2683   9.284   6.411   7.850
33559SOL    HW1 2684   9.345   6.358   7.904
33559SOL    HW2 2685   9.266   6.349   7.777
33560SOL     OW 2686   7.945   7.005   7.573
33560SOL    HW1 2687   7.862   6.992   7.623
33560SOL    HW2 2688   7.928   6.956   7.491
33561SOL     OW 2689   9.118   6.884   8.123
33561SOL    HW1 2690   9.215   6.894   8.118
33561SOL    HW2 2691   9.085   6.974   8.135
33562SOL     OW 2692   8.855   6.174   7.510
33562SOL    HW1 2693   8.808   6.148   7.591
33562SOL    HW2 2694   8.946   6.147   7.531
33563SOL     OW 2695   7.968   5.827   7.764
33563SOL    HW1 2696   8.010   5.792   7.683
33563SOL    HW2 2697   7.936   5.914   7.731
33564SOL     OW 2698   9.190   6.811   9.031
33564SOL    HW1 2699   9.282   6.783   9.038
33564SOL    HW2 2700   9.201   6.908   9.032
33565SOL     OW 2701   8.513   6.947   8.778
33565SOL    HW1 2702   8.435   6.915   8.827
33565SOL    HW2 2703   8.586   6.901   8.826
33566SOL     OW 2704   9.059   7.191   9.084
33566SOL    HW1 2705   9.064   7.236   8.999
33566SOL    HW2 2706   9.139   7.136   9.083
33567SOL     OW 2707   8.577   6.808   8.543
33567SOL    HW1 2708   8.513   6.841   8.606
33567SOL    HW2 2709   8.551   6.855   8.461
33568SOL     OW 2710   9.037   6.676   8.520
33568SOL    HW1 2711   9.053   6.738   8.594
33568SOL    HW2 2712   8.983   6.731   8.460
33569SOL     OW 2713   8.357   5.691   8.847
33569SOL    HW1 2714   8.387   5.663   8.759
33569SOL    HW2 2715   8.439   5.729   8.884
33570SOL     OW 2716   8.447   6.700   9.187
33570SOL    HW1 2717   8.359   6.734   9.211
33570SOL    HW2 2718   8.428   6.628   9.123
33571SOL     OW 2719   8.162   6.648   7.795
33571SOL    HW1 2720   8.145   6.621   7.887
33571SOL    HW2 2721   8.237   6.590   7.770
33572SOL     OW 2722   7.866   6.399   8.711
33572SOL    HW1 2723   7.939   6.392   8.777
33572SOL    HW2 2724   7.825   6.311   8.718
33573SOL     OW 2725   8.734   5.974   8.710
33573SOL    HW1 2726   8.754   6.046   8.773
33573SOL    HW2 2727   8.644   5.996   8.680
33574SOL     OW 2728   7.522   7.158   8.786
33574SOL    HW1 2729   7.521   7.248   8.751
33574SOL    HW2 2730   7.617   7.138   8.788
33575SOL     OW 2731   7.837   6.694   7.958
33575SOL    HW1 2732   7.835   6.755   7.884
33575SOL    HW2 2733   7.819   6.609   7.915
33576SOL     OW 2734   7.990   6.131   8.290
33576SOL    HW1 2735   8.014   6.194   8.219
33576SOL    HW2 2736   8.058   6.148   8.356
33577SOL     OW 2737   8.672   6.922   7.842
33577SOL    HW1 2738   8.714   7.003   7.877
33577SOL    HW2 2739   8.579   6.935   7.868
33578SOL     OW 2740   8.751   7.057   8.620
33578SOL    HW1 2741   8.816   7.047   8.693
33578SOL    HW2 2742   8.681   6.995   8.644
33579SOL     OW 2743   9.025   6.193   7.918
33579SOL    HW1 2744   8.977   6.249   7.982
33579SOL    HW2 2745   9.060   6.257   7.856
33580SOL     OW 2746   7.785   7.102   8.769
33580SOL    HW1 2747   7.776   7.064   8.678
33580SOL    HW2 2748   7.880   7.124   8.768
33581SOL     OW 2749   7.889   6.311   9.072
33581SOL    HW1 2750   7.945   6.357   9.007
33581SOL    HW2 2751   7.923   6.221   9.065
33582SOL     OW 2752   9.066   6.368   9.133
33582SOL    HW1 2753   8.976   6.403   9.126
33582SOL    HW2 2754   9.109   6.412   9.057
33583SOL     OW 2755   8.440   5.700   9.205
33583SOL    HW1 2756   8.503   5.771   9.190
33583SOL    HW2 2757   8.487   5.626   9.163
33584SOL     OW 2758   7.952   5.597   9.204
33584SOL    HW1 2759   7.905   5.544   9.137
33584SOL    HW2 2760   7.890   5.673   9.213
33585SOL     OW 2761   8.048   6.483   8.504
33585SOL    HW1 2762   8.070   6.577   8.503
33585SOL    HW2 2763   7.985   6.476   8.578
33586SOL     OW 2764   8.778   6.392   8.552
33586SOL    HW1 2765   8.716   6.396   8.479
33586SOL    HW2 2766   8.826   6.310   8.529
33587SOL     OW 2767   8.675   6.106   7.716
33587SOL    HW1 2768   8.678   6.030   7.777
33587SOL    HW2 2769   8.612   6.165   7.761
33588SOL     OW 2770   7.757   5.787   8.702
33588SOL    HW1 2771   7.702   5.813   8.777
33588SOL    HW2 2772   7.734   5.692   8.693
33589SOL     OW 2773   7.477   6.888   8.731
33589SOL    HW1 2774   7.501   6.832   8.807
33589SOL    HW2 2775   7.488   6.979   8.764
33590SOL     OW 2776   8.161   6.234   8.500
33590SOL    HW1 2777   8.241   6.220   8.446
33590SOL    HW2 2778   8.134   6.326   8.483
33591SOL     OW 2779   9.207   6.539   9.293
33591SOL    HW1 2780   9.159   6.469   9.245
33591SOL    HW2 2781   9.145   6.557   9.365
33592SOL     OW 2782   7.747   5.652   8.057
33592SOL    HW1 2783   7.721   5.743   8.081
33592SOL    HW2 2784   7.753   5.610   8.145
33593SOL     OW 2785   9.047   5.961   7.793
33593SOL    HW1 2786   9.077   5.891   7.854
33593SOL    HW2 2787   9.034   6.037   7.853
33594SOL     OW 2788   8.505   6.344   8.420
33594SOL    HW1 2789   8.487   6.357   8.515
33594SOL    HW2 2790   8.474   6.252   8.407
33595SOL     OW 2791   8.420   7.154   9.150
33595SOL    HW1 2792   8.413   7.207   9.067
33595SOL    HW2 2793   8.449   7.068   9.117
33596SOL     OW 2794   9.298   7.072   9.047
33596SOL    HW1 2795   9.323   7.097   8.955
33596SOL    HW2 2796   9.371   7.109   9.099
33597SOL     OW 2797   7.799   6.482   9.249
33597SOL    HW1 2798   7.881   6.499   9.297
33597SOL    HW2 2799   7.826   6.408   9.190
33598SOL     OW 2800   8.949   5.839   7.572
33598SOL    HW1 2801   8.876   5.788   7.609
33598SOL    HW2 2802   8.989   5.880   7.652
33599SOL     OW 2803   8.730   6.420   7.473
33599SOL    HW1 2804   8.775   6.335   7.486
33599SOL    HW2 2805   8.762   6.444   7.383
33600SOL     OW 2806   8.525   6.945   8.301
33600SOL    HW1 2807   8.541   6.872   8.238
33600SOL    HW2 2808   8.592   7.013   8.277
33601SOL     OW 2809   7.734   6.403   8.456
33601SOL    HW1 2810   7.829   6.415   8.440
33601SOL    HW2 2811   7.732   6.308   8.476
33602SOL     OW 2812   7.775   6.129   8.448
33602SOL    HW1 2813   7.743   6.038   8.434
33602SOL    HW2 2814   7.843   6.137   8.378
33603SOL     OW 2815   8.602   5.956   9.144
33603SOL    HW1 2816   8.554   6.011   9.209
33603SOL    HW2 2817   8.690   5.997   9.144
33604SOL     OW 2818   8.614   5.783   8.934
33604SOL    HW1 2819   8.611   5.849   9.006
33604SOL    HW2 2820   8.655   5.833   8.862
33605SOL     OW 2821   7.450   6.914   7.643
33605SOL    HW1 2822   7.358   6.924   7.609
33605SOL    HW2 2823   7.450   6.822   7.676
33606SOL     OW 2824   7.546   7.377   8.396
33606SOL    HW1 2825   7.514   7.306   8.336
33606SOL    HW2 2826   7.637   7.392   8.362
33607SOL     OW 2827   7.931   7.178   8.375
33607SOL    HW1 2828   8.003   7.241   8.397
33607SOL    HW2 2829   7.978   7.115   8.317
33608SOL     OW 2830   8.430   6.359   8.690
33608SOL    HW1 2831   8.480   6.318   8.762
33608SOL    HW2 2832   8.340   6.331   8.712
33609SOL     OW 2833   7.475   6.101   8.560
33609SOL    HW1 2834   7.556   6.091   8.508
33609SOL    HW2 2835   7.510   6.129   8.646
33610SOL     OW 2836   7.666   6.097   9.158
33610SOL    HW1 2837   7.724   6.058   9.090
33610SOL    HW2 2838   7.623   6.170   9.110
33611SOL     OW 2839   8.835   6.512   9.053
33611SOL    HW1 2840   8.869   6.599   9.081
33611SOL    HW2 2841   8.740   6.529   9.045
33612SOL     OW 2842   8.250   6.166   7.821
33612SOL    HW1 2843   8.260   6.095   7.754
33612SOL    HW2 2844   8.176   6.218   7.785
33613SOL     OW 2845   9.092   6.194   8.657
33613SOL    HW1 2846   9.074   6.124   8.721
33613SOL    HW2 2847   9.176   6.163   8.617
33614SOL     OW 2848   7.692   7.122   9.169
33614SOL    HW1 2849   7.678   7.190   9.237
33614SOL    HW2 2850   7.697   7.041   9.224
33615SOL     OW 2851   8.145   6.061   8.710
33615SOL    HW1 2852   8.092   5.987   8.676
33615SOL    HW2 2853   8.138   6.127   8.638
33616SOL     OW 2854   8.378   7.278   8.918
33616SOL    HW1 2855   8.360   7.246   8.829
33616SOL    HW2 2856   8.366   7.374   8.909
33617SOL     OW 2857   7.888   6.060   7.650
33617SOL    HW1 2858   7.956   6.129   7.654
33617SOL    HW2 2859   7.807   6.113   7.638
33618SOL     OW 2860   7.551   6.715   8.922
33618SOL    HW1 2861   7.569   6.662   9.003
33618SOL    HW2 2862   7.578   6.654   8.850
33619SOL     OW 2863   8.771   6.622   8.696
33619SOL    HW1 2864   8.767   6.548   8.631
33619SOL    HW2 2865   8.708   6.684   8.654
33620SOL     OW 2866   8.759   6.449   7.741
33620SOL    HW1 2867   8.680   6.413   7.785
33620SOL    HW2 2868   8.733   6.447   7.647
33621SOL     OW 2869   9.209   7.327   8.583
33621SOL    HW1 2870   9.280   7.352   8.520
33621SOL    HW2 2871   9.196   7.233   8.561
33622SOL     OW 2872   8.688   7.317   8.561
33622SOL    HW1 2873   8.778   7.340   8.535
33622SOL    HW2 2874   8.696   7.221   8.577
33623SOL     OW 2875   7.552   6.837   8.477
33623SOL    HW1 2876   7.520   6.849   8.569
33623SOL    HW2 2877   7.479   6.785   8.439
33624SOL     OW 2878   8.140   7.220   9.190
33624SOL    HW1 2879   8.099   7.304   9.168
33624SOL    HW2 2880   8.231   7.230   9.159
33625SOL     OW 2881   9.121   5.721   7.938
33625SOL    HW1 2882   9.200   5.709   7.884
33625SOL    HW2 2883   9.121   5.640   7.994
33626SOL     OW 2884   8.811   7.167   7.931
33626SOL    HW1 2885   8.868   7.187   7.854
33626SOL    HW2 2886   8.770   7.254   7.948
33627SOL     OW 2887   7.590   7.382   9.281
33627SOL    HW1 2888   7.552   7.311   9.336
33627SOL    HW2 2889   7.637   7.434   9.349
33628SOL     OW 2890   8.702   6.505   8.124
33628SOL    HW1 2891   8.783   6.451   8.131
33628SOL    HW2 2892   8.737   6.584   8.077
33629SOL     OW 2893   8.261   6.842   8.878
33629SOL    HW1 2894   8.231   6.886   8.960
33629SOL    HW2 2895   8.192   6.870   8.816
33630SOL     OW 2896   8.111   7.210   7.606
33630SOL    HW1 2897   8.127   7.218   7.510
33630SOL    HW2 2898   8.056   7.128   7.607
33631SOL     OW 2899   9.068   7.302   8.830
33631SOL    HW1 2900   9.114   7.320   8.745
33631SOL    HW2 2901   9.049   7.393   8.862
33632SOL     OW 2902   9.283   5.749   8.424
33632SOL    HW1 2903   9.309   5.662   8.389
33632SOL    HW2 2904   9.199   5.767   8.378
33633SOL     OW 2905   7.700   5.904   8.148
33633SOL    HW1 2906   7.615   5.951   8.133
33633SOL    HW2 2907   7.711   5.912   8.244
33634SOL     OW 2908   8.628   7.222   7.477
33634SOL    HW1 2909   8.638   7.126   7.492
33634SOL    HW2 2910   8.570   7.224   7.397
33635SOL     OW 2911   8.267   6.579   8.835
33635SOL    HW1 2912   8.285   6.583   8.740
33635SOL    HW2 2913   8.264   6.674   8.859
33636SOL     OW 2914   8.360   6.495   7.720
33636SOL    HW1 2915   8.436   6.538   7.678
33636SOL    HW2 2916   8.399   6.417   7.763
33637SOL     OW 2917   9.006   7.211   7.484
33637SOL    HW1 2918   8.910   7.224   7.476
33637SOL    HW2 2919   9.033   7.211   7.390
33638SOL     OW 2920   7.781   6.865   8.935
33638SOL    HW1 2921   7.775   6.939   8.873
33638SOL    HW2 2922   7.698   6.817   8.921
33639SOL     OW 2923   9.064   6.886   8.708
33639SOL    HW1 2924   9.148   6.874   8.757
33639SOL    HW2 2925   9.018   6.956   8.759
33640SOL     OW 2926   8.500   6.697   8.177
33640SOL    HW1 2927   8.421   6.650   8.209
33640SOL    HW2 2928   8.559   6.624   8.152
33641SOL     OW 2929   8.481   5.814   8.436
33641SOL    HW1 2930   8.471   5.771   8.349
33641SOL    HW2 2931   8.481   5.736   8.495
33642SOL     OW 2932   8.065   7.068   7.942
33642SOL    HW1 2933   8.114   7.024   7.871
33642SOL    HW2 2934   7.993   7.111   7.895
33643SOL     OW 2935   9.149   5.966   8.829
33643SOL    HW1 2936   9.217   6.036   8.829
33643SOL    HW2 2937   9.192   5.898   8.773
33644SOL     OW 2938   7.695   6.967   7.722
33644SOL    HW1 2939   7.599   6.952   7.714
33644SOL    HW2 2940   7.704   6.988   7.817
33645SOL     OW 2941   7.577   6.593   9.153
33645SOL    HW1 2942   7.506   6.584   9.219
33645SOL    HW2 2943   7.656   6.562   9.201
33646SOL     OW 2944   8.113   5.770   8.937
33646SOL    HW1 2945   8.200   5.745   8.901
33646SOL    HW2 2946   8.137   5.806   9.024
33647SOL     OW 2947   7.542   5.941   7.485
33647SOL    HW1 2948   7.452   5.926   7.453
33647SOL    HW2 2949   7.573   6.009   7.423
33648SOL     OW 2950   7.494   5.748   7.739
33648SOL    HW1 2951   7.489   5.836   7.698
33648SOL    HW2 2952   7.578   5.715   7.702
33649SOL     OW 2953   8.652   6.942   7.560
33649SOL    HW1 2954   8.573   6.886   7.567
33649SOL    HW2 2955   8.680   6.946   7.654
33650SOL     OW 2956   8.068   6.394   8.884
33650SOL    HW1 2957   8.119   6.476   8.880
33650SOL    HW2 2958   8.140   6.329   8.888
33651SOL     OW 2959   8.963   7.359   8.409
33651SOL    HW1 2960   8.992   7.408   8.331
33651SOL    HW2 2961   9.045   7.348   8.459
33652SOL     OW 2962   8.177   6.127   9.129
33652SOL    HW1 2963   8.202   6.179   9.207
33652SOL    HW2 2964   8.184   6.035   9.160
33653SOL     OW 2965   8.920   6.767   9.079
33653SOL    HW1 2966   8.905   6.775   9.176
33653SOL    HW2 2967   9.013   6.795   9.072
33654SOL     OW 2968   7.816   7.320   9.013
33654SOL    HW1 2969   7.731   7.365   8.998
33654SOL    HW2 2970   7.787   7.235   9.050
33655SOL     OW 2971   9.122   6.460   8.664
33655SOL    HW1 2972   9.124   6.367   8.633
33655SOL    HW2 2973   9.102   6.511   8.583
33656SOL     OW 2974   8.648   5.909   7.925
33656SOL    HW1 2975   8.717   5.840   7.916
33656SOL    HW2 2976   8.685   5.964   7.997
33657SOL     OW 2977   8.047   6.326   8.105
33657SOL    HW1 2978   8.073   6.419   8.096
33657SOL    HW2 2979   7.979   6.316   8.037
33658SOL     OW 2980   9.214   5.958   9.087
33658SOL    HW1 2981   9.183   5.963   8.995
33658SOL    HW2 2982   9.138   5.914   9.130
33659SOL     OW 2983   9.147   6.526   8.932
33659SOL    HW1 2984   9.185   6.613   8.953
33659SOL    HW2 2985   9.213   6.488   8.872
33660SOL     OW 2986   8.298   6.948   7.477
33660SOL    HW1 2987   8.272   6.962   7.570
33660SOL    HW2 2988   8.324   7.036   7.446
33661SOL     OW 2989   8.102   7.387   8.388
33661SOL    HW1 2990   8.097   7.482   8.366
33661SOL    HW2 2991   8.197   7.369   8.384
33662SOL     OW 2992   8.315   6.529   8.304
33662SOL    HW1 2993   8.370   6.461   8.344
33662SOL    HW2 2994   8.293   6.586   8.380
33663SOL     OW 2995   8.555   6.604   7.556
33663SOL    HW1 2996   8.512   6.646   7.479
33663SOL    HW2 2997   8.607   6.536   7.511
33664SOL     OW 2998   9.307   7.141   8.289
33664SOL    HW1 2999   9.221   7.147   8.247
33664SOL    HW2 3000   9.295   7.074   8.357
33665SOL     OW 3001   7.680   6.903   9.320
33665SOL    HW1 3002   7.606   6.845   9.302
33665SOL    HW2 3003   7.674   6.913   9.417
33666SOL     OW 3004   7.535   6.841   8.115
33666SOL    HW1 3005   7.536   6.785   8.193
33666SOL    HW2 3006   7.613   6.809   8.067
33667SOL     OW 3007   8.127   6.978   9.062
33667SOL    HW1 3008   8.050   6.927   9.092
33667SOL    HW2 3009   8.116   7.062   9.111
33668SOL     OW 3010   9.261   5.774   8.684
33668SOL    HW1 3011   9.279   5.680   8.695
33668SOL    HW2 3012   9.269   5.782   8.586
33669SOL     OW 3013   7.891   6.014   7.982
33669SOL    HW1 3014   7.924   5.941   7.928
33669SOL    HW2 3015   7.838   5.970   8.052
33670SOL     OW 3016   9.169   7.073   8.533
33670SOL    HW1 3017   9.084   7.057   8.488
33670SOL    HW2 3018   9.159   7.012   8.608
33671SOL     OW 3019   7.773   6.119   8.731
33671SOL    HW1 3020   7.843   6.077   8.784
33671SOL    HW2 3021   7.796   6.091   8.640
33672SOL     OW 3022   8.268   7.178   8.124
33672SOL    HW1 3023   8.261   7.203   8.031
33672SOL    HW2 3024   8.185   7.130   8.139
33673SOL     OW 3025   8.875   5.823   8.545
33673SOL    HW1 3026   8.907   5.744   8.590
33673SOL    HW2 3027   8.828   5.872   8.617
33674SOL     OW 3028   8.462   5.586   8.602
33674SOL    HW1 3029   8.408   5.511   8.575
33674SOL    HW2 3030   8.552   5.547   8.600
33675SOL     OW 3031   8.241   6.923   7.759
33675SOL    HW1 3032   8.210   6.831   7.765
33675SOL    HW2 3033   8.315   6.923   7.821
33676SOL     OW 3034   8.049   7.143   8.715
33676SOL    HW1 3035   8.049   7.229   8.761
33676SOL    HW2 3036   8.144   7.136   8.694
33677SOL     OW 3037   8.761   5.611   7.640
33677SOL    HW1 3038   8.774   5.555   7.564
33677SOL    HW2 3039   8.669   5.586   7.667
33678SOL     OW 3040   8.752   6.065   8.137
33678SOL    HW1 3041   8.688   6.138   8.128
33678SOL    HW2 3042   8.730   6.028   8.224
33679SOL     OW 3043   9.045   5.793   8.314
33679SOL    HW1 3044   8.974   5.809   8.378
33679SOL    HW2 3045   9.046   5.875   8.261
33680SOL     OW 3046   7.495   6.665   7.751
33680SOL    HW1 3047   7.586   6.656   7.720
33680SOL    HW2 3048   7.474   6.572   7.773
33681SOL     OW 3049   8.319   7.233   7.784
33681SOL    HW1 3050   8.242   7.225   7.724
33681SOL    HW2 3051   8.302   7.316   7.833
33682SOL     OW 3052   7.685   6.228   9.440
33682SOL    HW1 3053   7.593   6.212   9.467
33682SOL    HW2 3054   7.688   6.196   9.348
33683SOL     OW 3055   7.685   5.859  10.286
33683SOL    HW1 3056   7.705   5.844  10.381
33683SOL    HW2 3057   7.596   5.819  10.279
33684SOL     OW 3058   7.446   5.994   9.930
33684SOL    HW1 3059   7.364   6.013   9.979
33684SOL    HW2 3060   7.427   5.905   9.898
33685SOL     OW 3061   8.014   6.894  10.459
33685SOL    HW1 3062   7.919   6.876  10.453
33685SOL    HW2 3063   8.016   6.976  10.510
33686SOL     OW 3064   9.000   7.108  10.019
33686SOL    HW1 3065   8.964   7.081  10.106
33686SOL    HW2 3066   8.923   7.103   9.959
33687SOL     OW 3067   8.586   6.265  10.004
33687SOL    HW1 3068   8.608   6.360   9.991
33687SOL    HW2 3069   8.526   6.269  10.079
33688SOL     OW 3070   9.216   6.194   9.557
33688SOL    HW1 3071   9.206   6.192   9.459
33688SOL    HW2 3072   9.188   6.105   9.581
33689SOL     OW 3073   8.189   6.738  10.329
33689SOL    HW1 3074   8.124   6.792  10.379
33689SOL    HW2 3075   8.239   6.810  10.286
33690SOL     OW 3076   8.289   6.359   0.006
33690SOL    HW1 3077   8.300   6.428   0.072
33690SOL    HW2 3078   8.332   6.398  11.029
33691SOL     OW 3079   8.141   6.614   9.966
33691SOL    HW1 3080   8.198   6.586  10.040
33691SOL    HW2 3081   8.070   6.663  10.013
33692SOL     OW 3082   7.761   7.024  10.386
33692SOL    HW1 3083   7.691   6.976  10.338
33692SOL    HW2 3084   7.813   7.066  10.314
33693SOL     OW 3085   8.884   7.117  10.672
33693SOL    HW1 3086   8.950   7.185  10.696
33693SOL    HW2 3087   8.942   7.040  10.656
33694SOL     OW 3088   7.902   5.990  10.848
33694SOL    HW1 3089   7.972   5.933  10.814
33694SOL    HW2 3090   7.821   5.943  10.823
33695SOL     OW 3091   9.075   6.033  10.060
33695SOL    HW1 3092   9.008   6.061   9.996
33695SOL    HW2 3093   9.047   6.080  10.140
33696SOL     OW 3094   7.667   7.304   9.790
33696SOL    HW1 3095   7.702   7.382   9.839
33696SOL    HW2 3096   7.726   7.301   9.713
33697SOL     OW 3097   7.694   7.020   9.847
33697SOL    HW1 3098   7.687   7.117   9.854
33697SOL    HW2 3099   7.622   6.989   9.904
33698SOL     OW 3100   7.710   6.665  10.181
33698SOL    HW1 3101   7.719   6.587  10.237
33698SOL    HW2 3102   7.661   6.726  10.239
33699SOL     OW 3103   8.052   7.383  10.734
33699SOL    HW1 3104   7.978   7.361  10.793
33699SOL    HW2 3105   8.068   7.477  10.753
33700SOL     OW 3106   8.018   6.578   9.429
33700SOL    HW1 3107   8.068   6.628   9.360
33700SOL    HW2 3108   8.060   6.613   9.510
33701SOL     OW 3109   9.039   5.690  10.774
33701SOL    HW1 3110   9.034   5.780  10.740
33701SOL    HW2 3111   9.028   5.700  10.869
33702SOL     OW 3112   7.563   6.237   9.875
33702SOL    HW1 3113   7.529   6.147   9.886
33702SOL    HW2 3114   7.549   6.276   9.964
33703SOL     OW 3115   9.290   7.330   9.659
33703SOL    HW1 3116   9.364   7.308   9.720
33703SOL    HW2 3117   9.314   7.421   9.634
33704SOL     OW 3118   7.504   7.183   9.432
33704SOL    HW1 3119   7.487   7.089   9.450
33704SOL    HW2 3120   7.466   7.226   9.511
33705SOL     OW 3121   9.120   6.673   9.810
33705SOL    HW1 3122   9.194   6.697   9.751
33705SOL    HW2 3123   9.107   6.754   9.863
33706SOL     OW 3124   7.564   6.327  10.900
33706SOL    HW1 3125   7.655   6.328  10.933
33706SOL    HW2 3126   7.537   6.418  10.917
33707SOL     OW 3127   8.041   6.996  10.071
33707SOL    HW1 3128   8.003   6.905  10.079
33707SOL    HW2 3129   8.031   7.009   9.975
33708SOL     OW 3130   8.744   6.824  10.726
33708SOL    HW1 3131   8.766   6.761  10.655
33708SOL    HW2 3132   8.823   6.816  10.782
33709SOL     OW 3133   8.285   5.584   9.814
33709SOL    HW1 3134   8.313   5.677   9.809
33709SOL    HW2 3135   8.188   5.594   9.824
33710SOL     OW 3136   7.637   6.534  10.617
33710SOL    HW1 3137   7.725   6.495  10.598
33710SOL    HW2 3138   7.579   6.476  10.567
33711SOL     OW 3139   8.998   6.547   9.497
33711SOL    HW1 3140   8.917   6.500   9.522
33711SOL    HW2 3141   9.036   6.568   9.584
33712SOL     OW 3142   8.644   7.364  10.916
33712SOL    HW1 3143   8.644   7.421  10.838
33712SOL    HW2 3144   8.649   7.275  10.878
33713SOL     OW 3145   7.795   5.817   0.000
33713SOL    HW1 3146   7.863   5.883  11.084
33713SOL    HW2 3147   7.716   5.872   0.010
33714SOL     OW 3148   8.916   7.013  10.261
33714SOL    HW1 3149   8.861   7.030  10.341
33714SOL    HW2 3150   8.892   6.920  10.242
33715SOL     OW 3151   9.108   7.323   9.907
33715SOL    HW1 3152   9.087   7.284   9.821
33715SOL    HW2 3153   9.077   7.250   9.966
33716SOL     OW 3154   8.033   6.296   9.577
33716SOL    HW1 3155   8.030   6.387   9.544
33716SOL    HW2 3156   7.962   6.294   9.643
33717SOL     OW 3157   8.735   5.927  10.231
33717SOL    HW1 3158   8.643   5.895  10.245
33717SOL    HW2 3159   8.782   5.886  10.306
33718SOL     OW 3160   9.021   7.235   9.623
33718SOL    HW1 3161   9.115   7.258   9.627
33718SOL    HW2 3162   9.010   7.221   9.527
33719SOL     OW 3163   8.220   6.206  10.782
33719SOL    HW1 3164   8.216   6.163  10.869
33719SOL    HW2 3165   8.219   6.130  10.721
33720SOL     OW 3166   8.414   6.455  10.886
33720SOL    HW1 3167   8.450   6.378  10.838
33720SOL    HW2 3168   8.363   6.502  10.817
33721SOL     OW 3169   8.493   6.270   9.707
33721SOL    HW1 3170   8.507   6.286   9.802
33721SOL    HW2 3171   8.405   6.226   9.708
33722SOL     OW 3172   7.543   6.394  10.104
33722SOL    HW1 3173   7.620   6.397  10.163
33722SOL    HW2 3174   7.507   6.484  10.114
33723SOL     OW 3175   7.561   7.433  10.870
33723SOL    HW1 3176   7.557   7.377  10.948
33723SOL    HW2 3177   7.472   7.429  10.836
33724SOL     OW 3178   8.321   5.958   9.520
33724SOL    HW1 3179   8.355   6.010   9.446
33724SOL    HW2 3180   8.348   5.869   9.494
33725SOL     OW 3181   8.809   6.738   9.881
33725SOL    HW1 3182   8.880   6.728   9.816
33725SOL    HW2 3183   8.749   6.798   9.833
33726SOL     OW 3184   7.993   5.768  10.186
33726SOL    HW1 3185   8.000   5.778  10.283
33726SOL    HW2 3186   7.981   5.859  10.156
33727SOL     OW 3187   8.441   7.036   9.779
33727SOL    HW1 3188   8.396   7.102   9.721
33727SOL    HW2 3189   8.447   7.083   9.863
33728SOL     OW 3190   7.797   7.397  10.174
33728SOL    HW1 3191   7.840   7.310  10.188
33728SOL    HW2 3192   7.871   7.458  10.191
33729SOL     OW 3193   9.186   6.618  10.137
33729SOL    HW1 3194   9.151   6.706  10.112
33729SOL    HW2 3195   9.162   6.616  10.232
33730SOL     OW 3196   8.653   7.109  10.825
33730SOL    HW1 3197   8.709   7.031  10.837
33730SOL    HW2 3198   8.669   7.126  10.731
33731SOL     OW 3199   7.753   6.540   9.560
33731SOL    HW1 3200   7.833   6.556   9.508
33731SOL    HW2 3201   7.718   6.459   9.521
33732SOL     OW 3202   8.931   6.347  10.036
33732SOL    HW1 3203   8.873   6.269  10.028
33732SOL    HW2 3204   8.958   6.340  10.129
33733SOL     OW 3205   7.903   6.876  11.043
33733SOL    HW1 3206   7.879   6.874  10.947
33733SOL    HW2 3207   7.867   6.792  11.073
33734SOL     OW 3208   8.542   7.367   9.551
33734SOL    HW1 3209   8.471   7.314   9.592
33734SOL    HW2 3210   8.559   7.318   9.469
33735SOL     OW 3211   7.623   5.874  10.779
33735SOL    HW1 3212   7.558   5.938  10.810
33735SOL    HW2 3213   7.608   5.798  10.838
33736SOL     OW 3214   9.078   6.943   9.399
33736SOL    HW1 3215   9.037   7.028   9.376
33736SOL    HW2 3216   9.014   6.878   9.365
33737SOL     OW 3217   7.907   7.322   9.633
33737SOL    HW1 3218   7.956   7.374   9.699
33737SOL    HW2 3219   7.977   7.290   9.574
33738SOL     OW 3220   8.834   5.721   9.748
33738SOL    HW1 3221   8.827   5.665   9.668
33738SOL    HW2 3222   8.929   5.732   9.756
33739SOL     OW 3223   7.687   7.381  10.543
33739SOL    HW1 3224   7.753   7.324  10.584
33739SOL    HW2 3225   7.675   7.342  10.456
33740SOL     OW 3226   8.412   7.297  10.182
33740SOL    HW1 3227   8.485   7.238  10.206
33740SOL    HW2 3228   8.366   7.243  10.114
33741SOL     OW 3229   7.832   6.273   9.773
33741SOL    HW1 3230   7.856   6.180   9.794
33741SOL    HW2 3231   7.738   6.274   9.799
33742SOL     OW 3232   8.081   5.721   9.405
33742SOL    HW1 3233   8.152   5.664   9.437
33742SOL    HW2 3234   8.035   5.663   9.341
33743SOL     OW 3235   8.219   5.824  11.025
33743SOL    HW1 3236   8.289   5.801  11.088
33743SOL    HW2 3237   8.178   5.902  11.067
33744SOL     OW 3238   8.349   7.124  10.499
33744SOL    HW1 3239   8.324   7.086  10.413
33744SOL    HW2 3240   8.403   7.053  10.538
33745SOL     OW 3241   8.790   6.179  10.728
33745SOL    HW1 3242   8.830   6.156  10.813
33745SOL    HW2 3243   8.834   6.264  10.709
33746SOL     OW 3244   8.264   6.989  10.255
33746SOL    HW1 3245   8.350   6.983  10.208
33746SOL    HW2 3246   8.199   6.988  10.182
33747SOL     OW 3247   8.390   6.131  10.215
33747SOL    HW1 3248   8.371   6.111  10.121
33747SOL    HW2 3249   8.407   6.041  10.250
33748SOL     OW 3250   8.012   5.636   9.812
33748SOL    HW1 3251   7.938   5.645   9.874
33748SOL    HW2 3252   7.997   5.713   9.754
33749SOL     OW 3253   8.886   6.764   9.342
33749SOL    HW1 3254   8.908   6.693   9.406
33749SOL    HW2 3255   8.797   6.791   9.371
33750SOL     OW 3256   7.729   5.624   9.501
33750SOL    HW1 3257   7.788   5.698   9.479
33750SOL    HW2 3258   7.793   5.561   9.540
33751SOL     OW 3259   8.379   5.839   9.802
33751SOL    HW1 3260   8.359   5.889   9.722
33751SOL    HW2 3261   8.476   5.852   9.808
33752SOL     OW 3262   8.522   6.244  10.750
33752SOL    HW1 3263   8.477   6.163  10.719
33752SOL    HW2 3264   8.616   6.218  10.747
33753SOL     OW 3265   8.676   7.159  10.114
33753SOL    HW1 3266   8.688   7.223  10.043
33753SOL    HW2 3267   8.746   7.183  10.177
33754SOL     OW 3268   7.921   6.752  10.046
33754SOL    HW1 3269   7.844   6.721  10.099
33754SOL    HW2 3270   7.889   6.726   9.956
33755SOL     OW 3271   8.715   7.392   9.918
33755SOL    HW1 3272   8.762   7.463   9.871
33755SOL    HW2 3273   8.661   7.441   9.981
33756SOL     OW 3274   8.508   6.127   9.327
33756SOL    HW1 3275   8.457   6.209   9.310
33756SOL    HW2 3276   8.569   6.152   9.398
33757SOL     OW 3277   7.518   6.143  10.704
33757SOL    HW1 3278   7.613   6.130  10.690
33757SOL    HW2 3279   7.518   6.224  10.759
33758SOL     OW 3280   8.015   5.769  10.453
33758SOL    HW1 3281   8.060   5.721  10.523
33758SOL    HW2 3282   7.933   5.796  10.497
33759SOL     OW 3283   8.332   6.061   9.968
33759SOL    HW1 3284   8.262   6.100   9.913
33759SOL    HW2 3285   8.344   5.973   9.927
33760SOL     OW 3286   8.497   5.649  10.074
33760SOL    HW1 3287   8.434   5.642  10.001
33760SOL    HW2 3288   8.468   5.575  10.132
33761SOL     OW 3289   8.876   6.758  10.186
33761SOL    HW1 3290   8.809   6.695  10.214
33761SOL    HW2 3291   8.861   6.762  10.090
33762SOL     OW 3292   8.954   6.158  10.267
33762SOL    HW1 3293   8.882   6.098  10.291
33762SOL    HW2 3294   9.000   6.169  10.353
33763SOL     OW 3295   9.257   6.405   9.719
33763SOL    HW1 3296   9.326   6.352   9.765
33763SOL    HW2 3297   9.243   6.349   9.641
33764SOL     OW 3298   7.945   7.003   9.432
33764SOL    HW1 3299   7.862   6.994   9.481
33764SOL    HW2 3300   7.927   6.953   9.351
33765SOL     OW 3301   9.127   6.863  10.000
33765SOL    HW1 3302   9.223   6.879   9.993
33765SOL    HW2 3303   9.088   6.952  10.004
33766SOL     OW 3304   8.848   6.177   9.371
33766SOL    HW1 3305   8.793   6.144   9.445
33766SOL    HW2 3306   8.935   6.143   9.395
33767SOL     OW 3307   7.967   5.823   9.625
33767SOL    HW1 3308   8.008   5.792   9.543
33767SOL    HW2 3309   7.934   5.911   9.596
33768SOL     OW 3310   9.201   6.789  10.900
33768SOL    HW1 3311   9.297   6.799  10.893
33768SOL    HW2 3312   9.169   6.874  10.867
33769SOL     OW 3313   8.504   6.925  10.633
33769SOL    HW1 3314   8.432   6.900  10.693
33769SOL    HW2 3315   8.582   6.890  10.679
33770SOL     OW 3316   8.552   6.796  10.400
33770SOL    HW1 3317   8.507   6.839  10.475
33770SOL    HW2 3318   8.528   6.852  10.324
33771SOL     OW 3319   9.066   6.677  10.375
33771SOL    HW1 3320   9.078   6.736  10.453
33771SOL    HW2 3321   8.997   6.727  10.329
33772SOL     OW 3322   8.364   5.661  10.699
33772SOL    HW1 3323   8.385   5.668  10.604
33772SOL    HW2 3324   8.429   5.721  10.738
33773SOL     OW 3325   8.153   6.648   9.662
33773SOL    HW1 3326   8.147   6.629   9.757
33773SOL    HW2 3327   8.224   6.587   9.634
33774SOL     OW 3328   7.870   6.399  10.583
33774SOL    HW1 3329   7.943   6.406  10.648
33774SOL    HW2 3330   7.842   6.306  10.594
33775SOL     OW 3331   8.726   5.975  10.547
33775SOL    HW1 3332   8.735   6.039  10.619
33775SOL    HW2 3333   8.630   5.972  10.535
33776SOL     OW 3334   7.529   7.146  10.638
33776SOL    HW1 3335   7.516   7.236  10.604
33776SOL    HW2 3336   7.626   7.141  10.646
33777SOL     OW 3337   7.834   6.683   9.806
33777SOL    HW1 3338   7.855   6.753   9.743
33777SOL    HW2 3339   7.822   6.606   9.748
33778SOL     OW 3340   7.982   6.121  10.152
33778SOL    HW1 3341   8.010   6.187  10.086
33778SOL    HW2 3342   8.047   6.133  10.223
33779SOL     OW 3343   8.679   6.921   9.709
33779SOL    HW1 3344   8.722   7.002   9.741
33779SOL    HW2 3345   8.586   6.939   9.732
33780SOL     OW 3346   8.732   7.049  10.467
33780SOL    HW1 3347   8.782   7.066  10.549
33780SOL    HW2 3348   8.683   6.969  10.490
33781SOL     OW 3349   9.037   6.199   9.795
33781SOL    HW1 3350   8.977   6.264   9.834
33781SOL    HW2 3351   9.072   6.246   9.718
33782SOL     OW 3352   7.798   7.094  10.636
33782SOL    HW1 3353   7.787   7.066  10.542
33782SOL    HW2 3354   7.895   7.107  10.642
33783SOL     OW 3355   7.903   6.293  10.941
33783SOL    HW1 3356   7.957   6.341  10.875
33783SOL    HW2 3357   7.920   6.200  10.918
33784SOL     OW 3358   9.079   6.354  11.012
33784SOL    HW1 3359   9.004   6.414  11.013
33784SOL    HW2 3360   9.134   6.396  10.945
33785SOL     OW 3361   8.009   6.486  10.350
33785SOL    HW1 3362   8.055   6.571  10.354
33785SOL    HW2 3363   7.978   6.471  10.441
33786SOL     OW 3364   8.794   6.446  10.319
33786SOL    HW1 3365   8.707   6.414  10.291
33786SOL    HW2 3366   8.832   6.369  10.362
33787SOL     OW 3367   8.670   6.110   9.569
33787SOL    HW1 3368   8.673   6.032   9.628
33787SOL    HW2 3369   8.606   6.166   9.616
33788SOL     OW 3370   7.742   5.798  10.544
33788SOL    HW1 3371   7.701   5.833  10.625
33788SOL    HW2 3372   7.720   5.704  10.549
33789SOL     OW 3373   7.493   6.866  10.593
33789SOL    HW1 3374   7.526   6.816  10.670
33789SOL    HW2 3375   7.494   6.958  10.624
33790SOL     OW 3376   8.159   6.224  10.353
33790SOL    HW1 3377   8.244   6.200  10.311
33790SOL    HW2 3378   8.138   6.313  10.320
33791SOL     OW 3379   7.770   5.655   9.922
33791SOL    HW1 3380   7.731   5.741   9.945
33791SOL    HW2 3381   7.770   5.611  10.010
33792SOL     OW 3382   9.039   5.964   9.663
33792SOL    HW1 3383   9.075   5.894   9.720
33792SOL    HW2 3384   9.034   6.041   9.723
33793SOL     OW 3385   8.507   6.357  10.275
33793SOL    HW1 3386   8.486   6.372  10.370
33793SOL    HW2 3387   8.471   6.267  10.261
33794SOL     OW 3388   8.427   7.148  10.974
33794SOL    HW1 3389   8.406   7.220  10.912
33794SOL    HW2 3390   8.478   7.090  10.915
33795SOL     OW 3391   9.294   7.106  10.915
33795SOL    HW1 3392   9.308   7.113  10.819
33795SOL    HW2 3393   9.383   7.116  10.951
33796SOL     OW 3394   7.828   6.505  11.077
33796SOL    HW1 3395   7.903   6.521   0.035
33796SOL    HW2 3396   7.854   6.421  11.035
33797SOL     OW 3397   8.949   5.841   9.438
33797SOL    HW1 3398   8.884   5.775   9.468
33797SOL    HW2 3399   8.984   5.879   9.521
33798SOL     OW 3400   8.756   6.428   9.324
33798SOL    HW1 3401   8.797   6.343   9.349
33798SOL    HW2 3402   8.766   6.425   9.228
33799SOL     OW 3403   8.511   6.942  10.161
33799SOL    HW1 3404   8.513   6.870  10.095
33799SOL    HW2 3405   8.582   7.004  10.132
33800SOL     OW 3406   7.739   6.407  10.298
33800SOL    HW1 3407   7.834   6.426  10.306
33800SOL    HW2 3408   7.737   6.311  10.316
33801SOL     OW 3409   7.768   6.118  10.307
33801SOL    HW1 3410   7.742   6.026  10.290
33801SOL    HW2 3411   7.844   6.127  10.245
33802SOL     OW 3412   8.596   5.799  10.777
33802SOL    HW1 3413   8.615   5.868  10.841
33802SOL    HW2 3414   8.552   5.850  10.707
33803SOL     OW 3415   7.445   6.912   9.503
33803SOL    HW1 3416   7.352   6.921   9.471
33803SOL    HW2 3417   7.446   6.821   9.539
33804SOL     OW 3418   7.539   7.376  10.244
33804SOL    HW1 3419   7.516   7.299  10.189
33804SOL    HW2 3420   7.633   7.391  10.218
33805SOL     OW 3421   7.938   7.178  10.247
33805SOL    HW1 3422   8.013   7.230  10.280
33805SOL    HW2 3423   7.981   7.113  10.188
33806SOL     OW 3424   8.430   6.384  10.540
33806SOL    HW1 3425   8.484   6.338  10.608
33806SOL    HW2 3426   8.345   6.341  10.556
33807SOL     OW 3427   7.480   6.095  10.426
33807SOL    HW1 3428   7.561   6.100  10.375
33807SOL    HW2 3429   7.514   6.087  10.517
33808SOL     OW 3430   8.250   6.169   9.677
33808SOL    HW1 3431   8.260   6.093   9.617
33808SOL    HW2 3432   8.172   6.215   9.640
33809SOL     OW 3433   9.094   6.203  10.499
33809SOL    HW1 3434   9.084   6.133  10.565
33809SOL    HW2 3435   9.179   6.177  10.457
33810SOL     OW 3436   7.678   7.132  11.032
33810SOL    HW1 3437   7.621   7.151   0.008
33810SOL    HW2 3438   7.736   7.062  11.066
33811SOL     OW 3439   8.079   6.063  10.565
33811SOL    HW1 3440   8.139   5.988  10.553
33811SOL    HW2 3441   8.113   6.127  10.500
33812SOL     OW 3442   8.385   7.290  10.744
33812SOL    HW1 3443   8.368   7.256  10.655
33812SOL    HW2 3444   8.367   7.385  10.737
33813SOL     OW 3445   7.888   6.055   9.511
33813SOL    HW1 3446   7.953   6.127   9.516
33813SOL    HW2 3447   7.805   6.106   9.502
33814SOL     OW 3448   7.606   6.726  10.796
33814SOL    HW1 3449   7.597   6.671  10.877
33814SOL    HW2 3450   7.624   6.658  10.727
33815SOL     OW 3451   8.749   6.634  10.536
33815SOL    HW1 3452   8.779   6.576  10.463
33815SOL    HW2 3453   8.672   6.678  10.496
33816SOL     OW 3454   8.758   6.439   9.597
33816SOL    HW1 3455   8.674   6.410   9.635
33816SOL    HW2 3456   8.737   6.446   9.502
33817SOL     OW 3457   9.198   7.344  10.434
33817SOL    HW1 3458   9.272   7.356  10.371
33817SOL    HW2 3459   9.190   7.246  10.434
33818SOL     OW 3460   8.682   7.311  10.438
33818SOL    HW1 3461   8.774   7.327  10.412
33818SOL    HW2 3462   8.683   7.213  10.446
33819SOL     OW 3463   7.559   6.840  10.330
33819SOL    HW1 3464   7.533   6.850  10.424
33819SOL    HW2 3465   7.475   6.814  10.290
33820SOL     OW 3466   9.125   5.734   9.798
33820SOL    HW1 3467   9.205   5.719   9.745
33820SOL    HW2 3468   9.122   5.654   9.854
33821SOL     OW 3469   8.806   7.162   9.786
33821SOL    HW1 3470   8.870   7.188   9.716
33821SOL    HW2 3471   8.769   7.248   9.811
33822SOL     OW 3472   8.697   6.508   9.983
33822SOL    HW1 3473   8.780   6.471  10.017
33822SOL    HW2 3474   8.729   6.585   9.933
33823SOL     OW 3475   8.256   6.851  10.744
33823SOL    HW1 3476   8.230   6.897  10.827
33823SOL    HW2 3477   8.179   6.865  10.688
33824SOL     OW 3478   8.114   7.205   9.467
33824SOL    HW1 3479   8.127   7.217   9.372
33824SOL    HW2 3480   8.057   7.125   9.466
33825SOL     OW 3481   9.073   7.303  10.691
33825SOL    HW1 3482   9.119   7.320  10.608
33825SOL    HW2 3483   9.066   7.392  10.732
33826SOL     OW 3484   9.289   5.754  10.271
33826SOL    HW1 3485   9.312   5.664  10.241
33826SOL    HW2 3486   9.198   5.768  10.236
33827SOL     OW 3487   7.690   5.897  10.004
33827SOL    HW1 3488   7.608   5.949   9.993
33827SOL    HW2 3489   7.705   5.900  10.100
33828SOL     OW 3490   8.623   7.222   9.337
33828SOL    HW1 3491   8.636   7.127   9.348
33828SOL    HW2 3492   8.566   7.227   9.257
33829SOL     OW 3493   8.268   6.578  10.700
33829SOL    HW1 3494   8.318   6.561  10.618
33829SOL    HW2 3495   8.286   6.672  10.717
33830SOL     OW 3496   8.355   6.495   9.586
33830SOL    HW1 3497   8.430   6.535   9.538
33830SOL    HW2 3498   8.395   6.419   9.630
33831SOL     OW 3499   8.999   7.202   9.343
33831SOL    HW1 3500   8.906   7.229   9.335
33831SOL    HW2 3501   9.027   7.201   9.249
33832SOL     OW 3502   7.823   6.875  10.797
33832SOL    HW1 3503   7.797   6.946  10.736
33832SOL    HW2 3504   7.742   6.821  10.800
33833SOL     OW 3505   8.488   6.700  10.024
33833SOL    HW1 3506   8.412   6.655  10.064
33833SOL    HW2 3507   8.553   6.628  10.021
33834SOL     OW 3508   8.489   5.825  10.280
33834SOL    HW1 3509   8.480   5.769  10.201
33834SOL    HW2 3510   8.473   5.762  10.352
33835SOL     OW 3511   8.066   7.078   9.803
33835SOL    HW1 3512   8.114   7.035   9.730
33835SOL    HW2 3513   7.985   7.110   9.761
33836SOL     OW 3514   9.151   5.977  10.692
33836SOL    HW1 3515   9.216   6.048  10.697
33836SOL    HW2 3516   9.199   5.910  10.638
33837SOL     OW 3517   7.695   6.975   9.584
33837SOL    HW1 3518   7.599   6.959   9.577
33837SOL    HW2 3519   7.704   6.991   9.680
33838SOL     OW 3520   7.579   6.588  11.020
33838SOL    HW1 3521   7.515   6.571  11.090
33838SOL    HW2 3522   7.664   6.562  11.059
33839SOL     OW 3523   8.114   5.776  10.777
33839SOL    HW1 3524   8.200   5.769  10.731
33839SOL    HW2 3525   8.144   5.798  10.867
33840SOL     OW 3526   7.547   5.932   9.331
33840SOL    HW1 3527   7.453   5.927   9.309
33840SOL    HW2 3528   7.578   6.001   9.269
33841SOL     OW 3529   8.898   6.439  10.734
33841SOL    HW1 3530   8.839   6.503  10.693
33841SOL    HW2 3531   8.985   6.471  10.704
33842SOL     OW 3532   7.492   5.749   9.602
33842SOL    HW1 3533   7.494   5.837   9.564
33842SOL    HW2 3534   7.577   5.712   9.572
33843SOL     OW 3535   8.647   6.946   9.418
33843SOL    HW1 3536   8.558   6.910   9.425
33843SOL    HW2 3537   8.673   6.951   9.511
33844SOL     OW 3538   8.067   6.411  10.754
33844SOL    HW1 3539   8.136   6.478  10.741
33844SOL    HW2 3540   8.123   6.330  10.762
33845SOL     OW 3541   8.954   7.338  10.295
33845SOL    HW1 3542   8.990   7.383  10.218
33845SOL    HW2 3543   9.029   7.336  10.356
33846SOL     OW 3544   8.190   6.117  11.043
33846SOL    HW1 3545   8.201   6.206  11.083
33846SOL    HW2 3546   8.280   6.085  11.041
33847SOL     OW 3547   7.822   7.309  10.870
33847SOL    HW1 3548   7.750   7.372  10.851
33847SOL    HW2 3549   7.778   7.246  10.929
33848SOL     OW 3550   9.125   6.477  10.570
33848SOL    HW1 3551   9.111   6.385  10.542
33848SOL    HW2 3552   9.097   6.530  10.493
33849SOL     OW 3553   8.648   5.917   9.776
33849SOL    HW1 3554   8.712   5.844   9.767
33849SOL    HW2 3555   8.686   5.967   9.850
33850SOL     OW 3556   8.051   6.325   9.964
33850SOL    HW1 3557   8.082   6.416   9.952
33850SOL    HW2 3558   7.970   6.324   9.910
33851SOL     OW 3559   9.213   5.899  10.945
33851SOL    HW1 3560   9.180   5.923  10.857
33851SOL    HW2 3561   9.134   5.903  11.000
33852SOL     OW 3562   9.197   6.528  10.822
33852SOL    HW1 3563   9.193   6.623  10.846
33852SOL    HW2 3564   9.189   6.530  10.725
33853SOL     OW 3565   8.301   6.948   9.342
33853SOL    HW1 3566   8.273   6.961   9.434
33853SOL    HW2 3567   8.322   7.037   9.311
33854SOL     OW 3568   8.136   7.373  10.257
33854SOL    HW1 3569   8.114   7.463  10.227
33854SOL    HW2 3570   8.221   7.357  10.213
33855SOL     OW 3571   8.319   6.540  10.166
33855SOL    HW1 3572   8.371   6.471  10.211
33855SOL    HW2 3573   8.292   6.599  10.238
33856SOL     OW 3574   8.548   6.579   9.409
33856SOL    HW1 3575   8.513   6.631   9.335
33856SOL    HW2 3576   8.617   6.525   9.368
33857SOL     OW 3577   9.290   7.133  10.159
33857SOL    HW1 3578   9.208   7.129  10.110
33857SOL    HW2 3579   9.264   7.096  10.246
33858SOL     OW 3580   7.532   6.840   9.984
33858SOL    HW1 3581   7.511   6.777  10.054
33858SOL    HW2 3582   7.617   6.807   9.952
33859SOL     OW 3583   8.126   7.000  10.935
33859SOL    HW1 3584   8.057   6.946  10.976
33859SOL    HW2 3585   8.078   7.081  10.915
33860SOL     OW 3586   9.272   5.791  10.539
33860SOL    HW1 3587   9.286   5.697  10.556
33860SOL    HW2 3588   9.274   5.795  10.442
33861SOL     OW 3589   7.884   6.017   9.837
33861SOL    HW1 3590   7.927   5.945   9.789
33861SOL    HW2 3591   7.833   5.971   9.906
33862SOL     OW 3592   9.174   7.079  10.392
33862SOL    HW1 3593   9.091   7.047  10.352
33862SOL    HW2 3594   9.168   7.027  10.476
33863SOL     OW 3595   7.791   6.123  10.593
33863SOL    HW1 3596   7.871   6.086  10.632
33863SOL    HW2 3597   7.801   6.100  10.499
33864SOL     OW 3598   8.275   7.179   9.979
33864SOL    HW1 3599   8.259   7.211   9.889
33864SOL    HW2 3600   8.192   7.131   9.997
33865SOL     OW 3601   8.889   5.810  10.429
33865SOL    HW1 3602   8.913   5.738  10.488
33865SOL    HW2 3603   8.832   5.866  10.485
33866SOL     OW 3604   8.465   5.590  10.442
33866SOL    HW1 3605   8.416   5.512  10.413
33866SOL    HW2 3606   8.554   5.553  10.458
33867SOL     OW 3607   8.235   6.927   9.619
33867SOL    HW1 3608   8.202   6.836   9.623
33867SOL    HW2 3609   8.309   6.924   9.682
33868SOL     OW 3610   8.061   7.144  10.606
33868SOL    HW1 3611   8.068   7.231  10.650
33868SOL    HW2 3612   8.142   7.143  10.552
33869SOL     OW 3613   8.766   5.603   9.486
33869SOL    HW1 3614   8.777   5.538   9.416
33869SOL    HW2 3615   8.680   5.574   9.524
33870SOL     OW 3616   8.762   6.065   9.997
33870SOL    HW1 3617   8.687   6.128   9.997
33870SOL    HW2 3618   8.745   6.015  10.079
33871SOL     OW 3619   9.042   5.793  10.184
33871SOL    HW1 3620   8.972   5.804  10.250
33871SOL    HW2 3621   9.042   5.877  10.136
33872SOL     OW 3622   7.493   6.665   9.620
33872SOL    HW1 3623   7.589   6.658   9.603
33872SOL    HW2 3624   7.471   6.571   9.638
33873SOL     OW 3625   8.322   7.238   9.639
33873SOL    HW1 3626   8.246   7.223   9.579
33873SOL    HW2 3627   8.300   7.320   9.687
33874SOL     OW 3628   7.696   8.098   0.157
33874SOL    HW1 3629   7.608   8.066   0.181
33874SOL    HW2 3630   7.704   8.078   0.063
33875SOL     OW 3631   7.666   7.745   1.011
33875SOL    HW1 3632   7.696   7.711   1.097
33875SOL    HW2 3633   7.585   7.691   0.997
33876SOL     OW 3634   7.452   7.848   0.622
33876SOL    HW1 3635   7.369   7.872   0.669
33876SOL    HW2 3636   7.430   7.761   0.587
33877SOL     OW 3637   8.017   8.745   1.200
33877SOL    HW1 3638   7.929   8.753   1.159
33877SOL    HW2 3639   8.032   8.836   1.232
33878SOL     OW 3640   8.988   8.974   0.710
33878SOL    HW1 3641   8.952   8.951   0.798
33878SOL    HW2 3642   8.909   8.974   0.652
33879SOL     OW 3643   8.574   8.132   0.719
33879SOL    HW1 3644   8.610   8.216   0.685
33879SOL    HW2 3645   8.538   8.158   0.805
33880SOL     OW 3646   9.231   8.054   0.225
33880SOL    HW1 3647   9.181   8.085   0.149
33880SOL    HW2 3648   9.178   7.980   0.258
33881SOL     OW 3649   8.166   8.611   1.010
33881SOL    HW1 3650   8.111   8.653   1.078
33881SOL    HW2 3651   8.214   8.688   0.976
33882SOL     OW 3652   8.333   8.204   1.801
33882SOL    HW1 3653   8.305   8.263   1.871
33882SOL    HW2 3654   8.361   8.264   1.729
33883SOL     OW 3655   8.139   8.449   0.645
33883SOL    HW1 3656   8.199   8.432   0.719
33883SOL    HW2 3657   8.071   8.505   0.685
33884SOL     OW 3658   8.143   8.600   1.806
33884SOL    HW1 3659   8.184   8.684   1.834
33884SOL    HW2 3660   8.057   8.629   1.771
33885SOL     OW 3661   7.766   8.875   1.081
33885SOL    HW1 3662   7.690   8.834   1.037
33885SOL    HW2 3663   7.813   8.921   1.009
33886SOL     OW 3664   8.873   8.928   1.359
33886SOL    HW1 3665   8.946   8.993   1.368
33886SOL    HW2 3666   8.819   8.950   1.436
33887SOL     OW 3667   7.877   7.851   1.507
33887SOL    HW1 3668   7.951   7.789   1.511
33887SOL    HW2 3669   7.799   7.793   1.504
33888SOL     OW 3670   9.060   7.908   0.735
33888SOL    HW1 3671   8.979   7.926   0.684
33888SOL    HW2 3672   9.048   7.970   0.808
33889SOL     OW 3673   7.680   9.174   0.498
33889SOL    HW1 3674   7.722   9.255   0.533
33889SOL    HW2 3675   7.717   9.169   0.408
33890SOL     OW 3676   8.572   8.795   1.668
33890SOL    HW1 3677   8.618   8.789   1.753
33890SOL    HW2 3678   8.528   8.708   1.666
33891SOL     OW 3679   7.695   8.887   0.528
33891SOL    HW1 3680   7.693   8.984   0.539
33891SOL    HW2 3681   7.630   8.858   0.594
33892SOL     OW 3682   7.714   8.519   0.909
33892SOL    HW1 3683   7.716   8.485   0.998
33892SOL    HW2 3684   7.663   8.600   0.926
33893SOL     OW 3685   8.045   9.233   1.403
33893SOL    HW1 3686   7.975   9.218   1.469
33893SOL    HW2 3687   8.079   9.320   1.427
33894SOL     OW 3688   8.034   8.440   0.145
33894SOL    HW1 3689   8.082   8.500   0.087
33894SOL    HW2 3690   8.071   8.464   0.232
33895SOL     OW 3691   9.053   7.554   1.492
33895SOL    HW1 3692   9.045   7.634   1.439
33895SOL    HW2 3693   9.067   7.591   1.580
33896SOL     OW 3694   7.573   8.105   0.572
33896SOL    HW1 3695   7.549   8.011   0.559
33896SOL    HW2 3696   7.541   8.121   0.662
33897SOL     OW 3697   9.297   9.186   0.355
33897SOL    HW1 3698   9.353   9.163   0.431
33897SOL    HW2 3699   9.327   9.277   0.337
33898SOL     OW 3700   7.525   9.045   0.128
33898SOL    HW1 3701   7.504   8.956   0.161
33898SOL    HW2 3702   7.487   9.101   0.198
33899SOL     OW 3703   9.134   8.355   0.599
33899SOL    HW1 3704   9.222   8.332   0.567
33899SOL    HW2 3705   9.109   8.427   0.539
33900SOL     OW 3706   9.073   8.579   0.438
33900SOL    HW1 3707   9.148   8.603   0.382
33900SOL    HW2 3708   9.082   8.642   0.513
33901SOL     OW 3709   7.567   8.191   1.575
33901SOL    HW1 3710   7.662   8.209   1.580
33901SOL    HW2 3711   7.530   8.268   1.622
33902SOL     OW 3712   8.033   8.853   0.740
33902SOL    HW1 3713   8.006   8.759   0.748
33902SOL    HW2 3714   8.025   8.868   0.644
33903SOL     OW 3715   8.726   8.671   1.415
33903SOL    HW1 3716   8.770   8.609   1.355
33903SOL    HW2 3717   8.781   8.666   1.495
33904SOL     OW 3718   8.287   7.453   0.452
33904SOL    HW1 3719   8.314   7.546   0.470
33904SOL    HW2 3720   8.193   7.455   0.480
33905SOL     OW 3721   7.632   8.404   1.219
33905SOL    HW1 3722   7.716   8.364   1.250
33905SOL    HW2 3723   7.567   8.334   1.228
33906SOL     OW 3724   8.989   8.429   0.210
33906SOL    HW1 3725   8.908   8.384   0.237
33906SOL    HW2 3726   9.018   8.471   0.292
33907SOL     OW 3727   8.623   9.230   1.648
33907SOL    HW1 3728   8.642   9.314   1.601
33907SOL    HW2 3729   8.645   9.165   1.580
33908SOL     OW 3730   7.770   7.684   1.799
33908SOL    HW1 3731   7.832   7.749   1.835
33908SOL    HW2 3732   7.686   7.718   1.835
33909SOL     OW 3733   8.918   8.879   0.957
33909SOL    HW1 3734   8.854   8.897   1.028
33909SOL    HW2 3735   8.896   8.787   0.934
33910SOL     OW 3736   9.102   9.191   0.587
33910SOL    HW1 3737   9.098   9.145   0.502
33910SOL    HW2 3738   9.073   9.120   0.647
33911SOL     OW 3739   8.026   8.166   0.265
33911SOL    HW1 3740   8.037   8.252   0.221
33911SOL    HW2 3741   7.967   8.185   0.341
33912SOL     OW 3742   8.698   7.799   0.927
33912SOL    HW1 3743   8.614   7.754   0.948
33912SOL    HW2 3744   8.762   7.754   0.986
33913SOL     OW 3745   9.020   9.106   0.321
33913SOL    HW1 3746   9.113   9.132   0.314
33913SOL    HW2 3747   8.997   9.090   0.228
33914SOL     OW 3748   8.249   8.080   1.448
33914SOL    HW1 3749   8.234   8.049   1.540
33914SOL    HW2 3750   8.202   8.010   1.397
33915SOL     OW 3751   8.849   7.927   1.670
33915SOL    HW1 3752   8.855   7.984   1.748
33915SOL    HW2 3753   8.908   7.853   1.692
33916SOL     OW 3754   8.423   8.341   1.579
33916SOL    HW1 3755   8.468   8.260   1.547
33916SOL    HW2 3756   8.371   8.366   1.501
33917SOL     OW 3757   8.420   7.843   1.241
33917SOL    HW1 3758   8.328   7.865   1.264
33917SOL    HW2 3759   8.409   7.783   1.166
33918SOL     OW 3760   8.486   8.130   0.406
33918SOL    HW1 3761   8.497   8.143   0.501
33918SOL    HW2 3762   8.399   8.085   0.402
33919SOL     OW 3763   7.588   8.282   0.806
33919SOL    HW1 3764   7.613   8.330   0.726
33919SOL    HW2 3765   7.515   8.338   0.838
33920SOL     OW 3766   7.554   9.318   1.572
33920SOL    HW1 3767   7.566   9.286   1.664
33920SOL    HW2 3768   7.465   9.289   1.551
33921SOL     OW 3769   8.342   7.825   0.214
33921SOL    HW1 3770   8.390   7.876   0.147
33921SOL    HW2 3771   8.351   7.733   0.182
33922SOL     OW 3772   9.170   8.038   1.837
33922SOL    HW1 3773   9.131   8.115   1.789
33922SOL    HW2 3774   9.196   7.981   1.763
33923SOL     OW 3775   8.802   8.597   0.560
33923SOL    HW1 3776   8.885   8.586   0.511
33923SOL    HW2 3777   8.755   8.662   0.504
33924SOL     OW 3778   7.999   7.646   0.895
33924SOL    HW1 3779   8.013   7.666   0.990
33924SOL    HW2 3780   7.999   7.732   0.852
33925SOL     OW 3781   8.441   8.872   0.477
33925SOL    HW1 3782   8.399   8.947   0.428
33925SOL    HW2 3783   8.442   8.905   0.567
33926SOL     OW 3784   7.793   9.259   0.868
33926SOL    HW1 3785   7.836   9.171   0.872
33926SOL    HW2 3786   7.869   9.317   0.883
33927SOL     OW 3787   9.266   8.487   0.889
33927SOL    HW1 3788   9.206   8.494   0.813
33927SOL    HW2 3789   9.205   8.488   0.964
33928SOL     OW 3790   8.655   9.003   1.501
33928SOL    HW1 3791   8.641   8.931   1.565
33928SOL    HW2 3792   8.626   8.963   1.419
33929SOL     OW 3793   7.766   8.414   0.275
33929SOL    HW1 3794   7.845   8.417   0.220
33929SOL    HW2 3795   7.726   8.329   0.250
33930SOL     OW 3796   8.926   8.196   0.701
33930SOL    HW1 3797   8.926   8.177   0.796
33930SOL    HW2 3798   9.004   8.253   0.689
33931SOL     OW 3799   7.912   8.717   1.716
33931SOL    HW1 3800   7.868   8.720   1.627
33931SOL    HW2 3801   7.834   8.725   1.773
33932SOL     OW 3802   8.529   9.215   0.205
33932SOL    HW1 3803   8.485   9.160   0.272
33932SOL    HW2 3804   8.561   9.149   0.141
33933SOL     OW 3805   7.620   7.736   1.507
33933SOL    HW1 3806   7.540   7.779   1.541
33933SOL    HW2 3807   7.616   7.650   1.553
33934SOL     OW 3808   9.078   8.789   0.080
33934SOL    HW1 3809   9.037   8.875   0.062
33934SOL    HW2 3810   9.017   8.727   0.036
33935SOL     OW 3811   7.910   9.205   0.307
33935SOL    HW1 3812   7.950   9.244   0.387
33935SOL    HW2 3813   7.987   9.193   0.249
33936SOL     OW 3814   8.847   7.570   0.449
33936SOL    HW1 3815   8.847   7.520   0.366
33936SOL    HW2 3816   8.941   7.584   0.465
33937SOL     OW 3817   7.698   9.247   1.232
33937SOL    HW1 3818   7.753   9.178   1.273
33937SOL    HW2 3819   7.684   9.213   1.143
33938SOL     OW 3820   8.401   9.149   0.915
33938SOL    HW1 3821   8.490   9.115   0.930
33938SOL    HW2 3822   8.365   9.086   0.849
33939SOL     OW 3823   7.854   8.123   0.486
33939SOL    HW1 3824   7.868   8.026   0.495
33939SOL    HW2 3825   7.760   8.131   0.510
33940SOL     OW 3826   8.992   7.705   1.729
33940SOL    HW1 3827   8.989   7.710   1.828
33940SOL    HW2 3828   8.935   7.628   1.714
33941SOL     OW 3829   8.073   7.552   0.107
33941SOL    HW1 3830   8.166   7.528   0.122
33941SOL    HW2 3831   8.059   7.534   0.013
33942SOL     OW 3832   8.221   7.716   1.738
33942SOL    HW1 3833   8.300   7.658   1.746
33942SOL    HW2 3834   8.170   7.691   1.816
33943SOL     OW 3835   8.335   8.987   1.195
33943SOL    HW1 3836   8.331   8.961   1.101
33943SOL    HW2 3837   8.399   8.924   1.232
33944SOL     OW 3838   8.777   8.044   1.435
33944SOL    HW1 3839   8.817   8.008   1.518
33944SOL    HW2 3840   8.831   8.123   1.417
33945SOL     OW 3841   8.261   8.857   0.937
33945SOL    HW1 3842   8.349   8.849   0.896
33945SOL    HW2 3843   8.204   8.876   0.861
33946SOL     OW 3844   8.389   7.957   0.910
33946SOL    HW1 3845   8.374   7.942   0.814
33946SOL    HW2 3846   8.423   7.871   0.938
33947SOL     OW 3847   8.021   7.494   0.498
33947SOL    HW1 3848   7.943   7.506   0.555
33947SOL    HW2 3849   8.011   7.572   0.439
33948SOL     OW 3850   8.881   8.614   0.003
33948SOL    HW1 3851   8.922   8.552   0.066
33948SOL    HW2 3852   8.808   8.651   0.055
33949SOL     OW 3853   7.719   7.517   0.224
33949SOL    HW1 3854   7.756   7.570   0.151
33949SOL    HW2 3855   7.791   7.453   0.240
33950SOL     OW 3856   8.386   7.705   0.471
33950SOL    HW1 3857   8.369   7.751   0.387
33950SOL    HW2 3858   8.483   7.717   0.480
33951SOL     OW 3859   8.532   8.126   1.470
33951SOL    HW1 3860   8.481   8.044   1.472
33951SOL    HW2 3861   8.625   8.096   1.462
33952SOL     OW 3862   8.695   9.015   0.773
33952SOL    HW1 3863   8.696   9.091   0.712
33952SOL    HW2 3864   8.755   9.043   0.844
33953SOL     OW 3865   7.932   8.595   0.734
33953SOL    HW1 3866   7.861   8.571   0.796
33953SOL    HW2 3867   7.887   8.582   0.648
33954SOL     OW 3868   8.707   9.259   0.616
33954SOL    HW1 3869   8.752   9.322   0.557
33954SOL    HW2 3870   8.702   9.310   0.697
33955SOL     OW 3871   8.485   7.977   0.037
33955SOL    HW1 3872   8.446   8.066   0.033
33955SOL    HW2 3873   8.575   7.995   0.067
33956SOL     OW 3874   7.496   8.009   1.395
33956SOL    HW1 3875   7.592   7.997   1.386
33956SOL    HW2 3876   7.493   8.085   1.457
33957SOL     OW 3877   8.018   7.684   1.169
33957SOL    HW1 3878   8.065   7.615   1.219
33957SOL    HW2 3879   7.926   7.671   1.200
33958SOL     OW 3880   8.334   7.894   0.657
33958SOL    HW1 3881   8.291   7.953   0.594
33958SOL    HW2 3882   8.343   7.813   0.604
33959SOL     OW 3883   8.465   7.523   0.768
33959SOL    HW1 3884   8.424   7.510   0.682
33959SOL    HW2 3885   8.442   7.441   0.814
33960SOL     OW 3886   8.871   8.632   0.881
33960SOL    HW1 3887   8.796   8.573   0.891
33960SOL    HW2 3888   8.884   8.629   0.785
33961SOL     OW 3889   8.924   8.018   0.976
33961SOL    HW1 3890   8.864   7.946   1.002
33961SOL    HW2 3891   8.987   8.023   1.050
33962SOL     OW 3892   9.306   8.284   0.387
33962SOL    HW1 3893   9.359   8.226   0.445
33962SOL    HW2 3894   9.278   8.220   0.319
33963SOL     OW 3895   7.935   8.908   0.143
33963SOL    HW1 3896   7.864   8.876   0.201
33963SOL    HW2 3897   7.926   8.848   0.067
33964SOL     OW 3898   9.114   8.737   0.653
33964SOL    HW1 3899   9.209   8.744   0.673
33964SOL    HW2 3900   9.080   8.824   0.681
33965SOL     OW 3901   8.827   8.038   0.078
33965SOL    HW1 3902   8.790   8.010   0.165
33965SOL    HW2 3903   8.880   7.962   0.053
33966SOL     OW 3904   7.976   7.685   0.319
33966SOL    HW1 3905   8.010   7.635   0.242
33966SOL    HW2 3906   7.947   7.768   0.277
33967SOL     OW 3907   9.186   8.674   1.575
33967SOL    HW1 3908   9.276   8.639   1.580
33967SOL    HW2 3909   9.204   8.770   1.587
33968SOL     OW 3910   8.502   8.799   1.327
33968SOL    HW1 3911   8.428   8.764   1.379
33968SOL    HW2 3912   8.578   8.750   1.366
33969SOL     OW 3913   9.048   9.031   1.696
33969SOL    HW1 3914   9.046   9.070   1.607
33969SOL    HW2 3915   9.131   8.982   1.691
33970SOL     OW 3916   8.554   8.671   1.091
33970SOL    HW1 3917   8.511   8.718   1.165
33970SOL    HW2 3918   8.529   8.725   1.014
33971SOL     OW 3919   9.055   8.543   1.079
33971SOL    HW1 3920   9.060   8.613   1.148
33971SOL    HW2 3921   8.998   8.587   1.014
33972SOL     OW 3922   8.368   7.545   1.412
33972SOL    HW1 3923   8.394   7.534   1.319
33972SOL    HW2 3924   8.446   7.590   1.449
33973SOL     OW 3925   8.439   8.563   1.743
33973SOL    HW1 3926   8.348   8.592   1.758
33973SOL    HW2 3927   8.430   8.490   1.679
33974SOL     OW 3928   8.171   8.509   0.380
33974SOL    HW1 3929   8.169   8.488   0.476
33974SOL    HW2 3930   8.252   8.461   0.350
33975SOL     OW 3931   7.858   8.258   1.260
33975SOL    HW1 3932   7.933   8.257   1.324
33975SOL    HW2 3933   7.824   8.167   1.271
33976SOL     OW 3934   8.722   7.828   1.266
33976SOL    HW1 3935   8.737   7.906   1.322
33976SOL    HW2 3936   8.629   7.840   1.238
33977SOL     OW 3937   7.512   9.016   1.351
33977SOL    HW1 3938   7.507   9.105   1.313
33977SOL    HW2 3939   7.608   8.998   1.351
33978SOL     OW 3940   7.802   8.558   0.502
33978SOL    HW1 3941   7.800   8.638   0.449
33978SOL    HW2 3942   7.794   8.490   0.432
33979SOL     OW 3943   7.991   7.992   0.861
33979SOL    HW1 3944   8.022   8.049   0.787
33979SOL    HW2 3945   8.063   8.005   0.926
33980SOL     OW 3946   8.678   8.781   0.394
33980SOL    HW1 3947   8.729   8.859   0.427
33980SOL    HW2 3948   8.588   8.805   0.425
33981SOL     OW 3949   8.727   8.912   1.144
33981SOL    HW1 3950   8.785   8.916   1.224
33981SOL    HW2 3951   8.670   8.836   1.166
33982SOL     OW 3952   9.020   8.064   0.473
33982SOL    HW1 3953   8.980   8.106   0.550
33982SOL    HW2 3954   9.043   8.141   0.420
33983SOL     OW 3955   7.785   8.964   1.327
33983SOL    HW1 3956   7.773   8.922   1.238
33983SOL    HW2 3957   7.880   8.985   1.321
33984SOL     OW 3958   7.881   8.176   1.617
33984SOL    HW1 3959   7.940   8.222   1.555
33984SOL    HW2 3960   7.918   8.086   1.616
33985SOL     OW 3961   9.075   8.233   1.689
33985SOL    HW1 3962   8.984   8.266   1.687
33985SOL    HW2 3963   9.115   8.281   1.613
33986SOL     OW 3964   8.439   7.557   1.758
33986SOL    HW1 3965   8.507   7.625   1.744
33986SOL    HW2 3966   8.483   7.480   1.717
33987SOL     OW 3967   7.951   7.476   1.744
33987SOL    HW1 3968   7.909   7.411   1.684
33987SOL    HW2 3969   7.882   7.545   1.749
33988SOL     OW 3970   7.971   8.369   1.015
33988SOL    HW1 3971   8.038   8.439   1.010
33988SOL    HW2 3972   7.962   8.357   1.110
33989SOL     OW 3973   8.822   8.308   1.000
33989SOL    HW1 3974   8.732   8.278   0.986
33989SOL    HW2 3975   8.867   8.224   1.018
33990SOL     OW 3976   8.683   7.956   0.287
33990SOL    HW1 3977   8.687   7.887   0.355
33990SOL    HW2 3978   8.615   8.016   0.324
33991SOL     OW 3979   7.758   7.650   1.254
33991SOL    HW1 3980   7.706   7.675   1.332
33991SOL    HW2 3981   7.736   7.555   1.246
33992SOL     OW 3982   7.487   8.755   1.280
33992SOL    HW1 3983   7.506   8.691   1.352
33992SOL    HW2 3984   7.486   8.841   1.325
33993SOL     OW 3985   8.167   8.081   1.046
33993SOL    HW1 3986   8.252   8.042   1.017
33993SOL    HW2 3987   8.171   8.172   1.016
33994SOL     OW 3988   9.212   8.398   1.853
33994SOL    HW1 3989   9.168   8.338   1.789
33994SOL    HW2 3990   9.147   8.396   1.926
33995SOL     OW 3991   7.773   7.522   0.610
33995SOL    HW1 3992   7.741   7.608   0.644
33995SOL    HW2 3993   7.766   7.467   0.691
33996SOL     OW 3994   9.056   7.826   0.340
33996SOL    HW1 3995   9.079   7.760   0.407
33996SOL    HW2 3996   9.035   7.905   0.395
33997SOL     OW 3997   8.503   8.206   0.987
33997SOL    HW1 3998   8.476   8.211   1.081
33997SOL    HW2 3999   8.482   8.113   0.966
33998SOL     OW 4000   8.413   9.003   1.699
33998SOL    HW1 4001   8.422   9.065   1.623
33998SOL    HW2 4002   8.466   8.926   1.669
33999SOL     OW 4003   9.291   8.924   1.616
33999SOL    HW1 4004   9.265   8.977   1.538
33999SOL    HW2 4005   9.375   8.964   1.644
34000SOL     OW 4006   7.798   8.347   1.797
34000SOL    HW1 4007   7.879   8.365   1.848
34000SOL    HW2 4008   7.825   8.273   1.739
34001SOL     OW 4009   8.971   7.719   0.095
34001SOL    HW1 4010   8.907   7.657   0.133
34001SOL    HW2 4011   9.013   7.756   0.175
34002SOL     OW 4012   8.727   8.288   0.031
34002SOL    HW1 4013   8.767   8.199   0.046
34002SOL    HW2 4014   8.764   8.310  11.045
34003SOL     OW 4015   8.514   8.813   0.852
34003SOL    HW1 4016   8.528   8.732   0.798
34003SOL    HW2 4017   8.581   8.875   0.817
34004SOL     OW 4018   7.766   8.002   0.988
34004SOL    HW1 4019   7.733   7.910   0.986
34004SOL    HW2 4020   7.849   7.993   0.934
34005SOL     OW 4021   8.607   7.809   1.701
34005SOL    HW1 4022   8.561   7.864   1.768
34005SOL    HW2 4023   8.693   7.854   1.694
34006SOL     OW 4024   8.612   7.648   1.477
34006SOL    HW1 4025   8.614   7.711   1.551
34006SOL    HW2 4026   8.658   7.696   1.408
34007SOL     OW 4027   7.448   8.791   0.226
34007SOL    HW1 4028   7.363   8.799   0.176
34007SOL    HW2 4029   7.459   8.694   0.227
34008SOL     OW 4030   7.541   9.222   0.938
34008SOL    HW1 4031   7.512   9.160   0.869
34008SOL    HW2 4032   7.635   9.237   0.913
34009SOL     OW 4033   7.927   9.020   0.919
34009SOL    HW1 4034   8.001   9.081   0.932
34009SOL    HW2 4035   7.961   8.958   0.851
34010SOL     OW 4036   8.414   8.208   1.242
34010SOL    HW1 4037   8.475   8.183   1.314
34010SOL    HW2 4038   8.330   8.184   1.282
34011SOL     OW 4039   7.485   7.991   1.113
34011SOL    HW1 4040   7.564   7.959   1.068
34011SOL    HW2 4041   7.511   7.990   1.206
34012SOL     OW 4042   7.668   7.967   1.722
34012SOL    HW1 4043   7.718   7.918   1.656
34012SOL    HW2 4044   7.619   8.031   1.669
34013SOL     OW 4045   8.838   8.362   1.656
34013SOL    HW1 4046   8.858   8.457   1.655
34013SOL    HW2 4047   8.834   8.343   1.561
34014SOL     OW 4048   8.241   8.012   0.387
34014SOL    HW1 4049   8.268   7.942   0.324
34014SOL    HW2 4050   8.168   8.056   0.339
34015SOL     OW 4051   9.088   8.068   1.194
34015SOL    HW1 4052   9.059   8.012   1.267
34015SOL    HW2 4053   9.171   8.027   1.166
34016SOL     OW 4054   7.699   8.998   1.722
34016SOL    HW1 4055   7.676   9.051   1.799
34016SOL    HW2 4056   7.713   8.910   1.761
34017SOL     OW 4057   8.134   7.920   1.264
34017SOL    HW1 4058   8.088   7.841   1.229
34017SOL    HW2 4059   8.130   7.983   1.189
34018SOL     OW 4060   8.378   9.161   1.480
34018SOL    HW1 4061   8.367   9.137   1.387
34018SOL    HW2 4062   8.403   9.255   1.475
34019SOL     OW 4063   7.906   7.920   0.201
34019SOL    HW1 4064   7.968   7.995   0.205
34019SOL    HW2 4065   7.821   7.967   0.208
34020SOL     OW 4066   7.558   8.574   1.466
34020SOL    HW1 4067   7.571   8.525   1.550
34020SOL    HW2 4068   7.577   8.506   1.399
34021SOL     OW 4069   8.773   8.489   1.219
34021SOL    HW1 4070   8.794   8.438   1.139
34021SOL    HW2 4071   8.697   8.542   1.190
34022SOL     OW 4072   8.759   8.308   0.304
34022SOL    HW1 4073   8.678   8.273   0.345
34022SOL    HW2 4074   8.740   8.297   0.210
34023SOL     OW 4075   9.182   9.212   1.095
34023SOL    HW1 4076   9.268   9.188   1.055
34023SOL    HW2 4077   9.172   9.149   1.168
34024SOL     OW 4078   8.687   9.180   1.103
34024SOL    HW1 4079   8.781   9.203   1.091
34024SOL    HW2 4080   8.693   9.086   1.128
34025SOL     OW 4081   7.550   8.700   1.030
34025SOL    HW1 4082   7.520   8.719   1.122
34025SOL    HW2 4083   7.469   8.667   0.989
34026SOL     OW 4084   8.154   9.094   1.734
34026SOL    HW1 4085   8.163   9.172   1.679
34026SOL    HW2 4086   8.244   9.056   1.728
34027SOL     OW 4087   8.359   7.558   0.142
34027SOL    HW1 4088   8.421   7.526   0.075
34027SOL    HW2 4089   8.384   7.500   0.216
34028SOL     OW 4090   9.129   7.592   0.509
34028SOL    HW1 4091   9.205   7.577   0.451
34028SOL    HW2 4092   9.127   7.509   0.561
34029SOL     OW 4093   8.808   9.012   0.478
34029SOL    HW1 4094   8.880   9.027   0.414
34029SOL    HW2 4095   8.774   9.102   0.491
34030SOL     OW 4096   7.611   9.256   1.831
34030SOL    HW1 4097   7.559   9.185   1.874
34030SOL    HW2 4098   7.644   9.301   1.910
34031SOL     OW 4099   8.697   8.360   0.641
34031SOL    HW1 4100   8.780   8.314   0.661
34031SOL    HW2 4101   8.731   8.442   0.599
34032SOL     OW 4102   8.251   8.693   1.434
34032SOL    HW1 4103   8.226   8.754   1.507
34032SOL    HW2 4104   8.183   8.716   1.368
34033SOL     OW 4105   8.139   9.073   0.176
34033SOL    HW1 4106   8.151   9.082   0.081
34033SOL    HW2 4107   8.067   9.005   0.179
34034SOL     OW 4108   9.290   7.616   0.972
34034SOL    HW1 4109   9.292   7.524   0.942
34034SOL    HW2 4110   9.209   7.650   0.930
34035SOL     OW 4111   7.698   7.764   0.707
34035SOL    HW1 4112   7.611   7.804   0.684
34035SOL    HW2 4113   7.703   7.778   0.803
34036SOL     OW 4114   8.664   9.042   0.036
34036SOL    HW1 4115   8.668   8.947   0.058
34036SOL    HW2 4116   8.597   9.044  11.066
34037SOL     OW 4117   8.267   8.436   1.373
34037SOL    HW1 4118   8.310   8.446   1.287
34037SOL    HW2 4119   8.264   8.528   1.407
34038SOL     OW 4120   8.373   8.376   0.287
34038SOL    HW1 4121   8.429   8.405   0.212
34038SOL    HW2 4122   8.407   8.287   0.305
34039SOL     OW 4123   8.963   9.041   0.038
34039SOL    HW1 4124   8.868   9.060   0.037
34039SOL    HW2 4125   8.993   9.065  11.050
34040SOL     OW 4126   7.783   8.725   1.488
34040SOL    HW1 4127   7.774   8.798   1.424
34040SOL    HW2 4128   7.702   8.672   1.473
34041SOL     OW 4129   9.056   8.759   1.260
34041SOL    HW1 4130   9.129   8.762   1.323
34041SOL    HW2 4131   8.990   8.821   1.298
34042SOL     OW 4132   8.491   8.556   0.725
34042SOL    HW1 4133   8.414   8.501   0.747
34042SOL    HW2 4134   8.552   8.492   0.685
34043SOL     OW 4135   8.473   7.674   0.990
34043SOL    HW1 4136   8.463   7.630   0.902
34043SOL    HW2 4137   8.475   7.596   1.049
34044SOL     OW 4138   8.066   8.947   0.487
34044SOL    HW1 4139   8.113   8.896   0.418
34044SOL    HW2 4140   7.991   8.984   0.439
34045SOL     OW 4141   9.154   7.821   1.378
34045SOL    HW1 4142   9.218   7.895   1.379
34045SOL    HW2 4143   9.201   7.755   1.323
34046SOL     OW 4144   7.708   8.806   0.279
34046SOL    HW1 4145   7.614   8.807   0.255
34046SOL    HW2 4146   7.705   8.844   0.370
34047SOL     OW 4147   7.577   8.454   1.698
34047SOL    HW1 4148   7.505   8.444   1.763
34047SOL    HW2 4149   7.656   8.420   1.747
34048SOL     OW 4150   8.119   7.633   1.489
34048SOL    HW1 4151   8.208   7.603   1.463
34048SOL    HW2 4152   8.136   7.668   1.578
34049SOL     OW 4153   7.571   7.817   0.006
34049SOL    HW1 4154   7.494   7.765  11.078
34049SOL    HW2 4155   7.546   7.906  11.079
34050SOL     OW 4156   8.899   8.305   1.382
34050SOL    HW1 4157   8.858   8.372   1.323
34050SOL    HW2 4158   8.992   8.332   1.379
34051SOL     OW 4159   7.492   7.617   0.330
34051SOL    HW1 4160   7.489   7.695   0.274
34051SOL    HW2 4161   7.580   7.581   0.309
34052SOL     OW 4162   8.648   8.771   0.119
34052SOL    HW1 4163   8.551   8.767   0.107
34052SOL    HW2 4164   8.657   8.765   0.216
34053SOL     OW 4165   8.065   8.265   1.426
34053SOL    HW1 4166   8.122   8.343   1.416
34053SOL    HW2 4167   8.135   8.197   1.436
34054SOL     OW 4168   8.960   9.203   0.947
34054SOL    HW1 4169   8.993   9.260   0.877
34054SOL    HW2 4170   9.037   9.201   1.008
34055SOL     OW 4171   8.178   7.986   1.683
34055SOL    HW1 4172   8.213   8.044   1.752
34055SOL    HW2 4173   8.195   7.896   1.717
34056SOL     OW 4174   8.906   8.629   1.623
34056SOL    HW1 4175   8.901   8.638   1.721
34056SOL    HW2 4176   8.999   8.654   1.605
34057SOL     OW 4177   7.829   9.210   1.588
34057SOL    HW1 4178   7.744   9.243   1.556
34057SOL    HW2 4179   7.805   9.119   1.616
34058SOL     OW 4180   9.165   8.333   1.236
34058SOL    HW1 4181   9.138   8.245   1.204
34058SOL    HW2 4182   9.125   8.394   1.172
34059SOL     OW 4183   8.666   7.769   0.486
34059SOL    HW1 4184   8.728   7.695   0.474
34059SOL    HW2 4185   8.706   7.819   0.560
34060SOL     OW 4186   8.037   8.190   0.682
34060SOL    HW1 4187   8.080   8.273   0.657
34060SOL    HW2 4188   7.984   8.169   0.603
34061SOL     OW 4189   9.212   7.830   1.642
34061SOL    HW1 4190   9.178   7.838   1.552
34061SOL    HW2 4191   9.140   7.779   1.684
34062SOL     OW 4192   9.179   8.392   1.501
34062SOL    HW1 4193   9.188   8.488   1.507
34062SOL    HW2 4194   9.196   8.376   1.406
34063SOL     OW 4195   8.357   8.802   0.048
34063SOL    HW1 4196   8.267   8.797   0.084
34063SOL    HW2 4197   8.359   8.888   0.004
34064SOL     OW 4198   8.098   9.234   0.919
34064SOL    HW1 4199   8.097   9.331   0.906
34064SOL    HW2 4200   8.192   9.215   0.923
34065SOL     OW 4201   8.311   8.382   0.855
34065SOL    HW1 4202   8.375   8.321   0.896
34065SOL    HW2 4203   8.310   8.456   0.917
34066SOL     OW 4204   8.495   8.442   0.062
34066SOL    HW1 4205   8.509   8.513  11.100
34066SOL    HW2 4206   8.577   8.391   0.056
34067SOL     OW 4207   9.283   8.985   0.820
34067SOL    HW1 4208   9.191   9.006   0.801
34067SOL    HW2 4209   9.276   8.953   0.912
34068SOL     OW 4210   7.689   8.767   1.862
34068SOL    HW1 4211   7.614   8.709   1.845
34068SOL    HW2 4212   7.683   8.778   1.959
34069SOL     OW 4213   7.540   8.704   0.655
34069SOL    HW1 4214   7.537   8.642   0.728
34069SOL    HW2 4215   7.609   8.668   0.598
34070SOL     OW 4216   8.121   8.852   1.606
34070SOL    HW1 4217   8.051   8.795   1.643
34070SOL    HW2 4218   8.105   8.936   1.652
34071SOL     OW 4219   9.272   7.617   1.231
34071SOL    HW1 4220   9.266   7.520   1.235
34071SOL    HW2 4221   9.282   7.630   1.134
34072SOL     OW 4222   7.895   7.856   0.529
34072SOL    HW1 4223   7.923   7.784   0.471
34072SOL    HW2 4224   7.837   7.814   0.594
34073SOL     OW 4225   9.186   8.926   1.067
34073SOL    HW1 4226   9.092   8.926   1.042
34073SOL    HW2 4227   9.181   8.884   1.154
34074SOL     OW 4228   7.774   7.987   1.278
34074SOL    HW1 4229   7.835   7.943   1.341
34074SOL    HW2 4230   7.800   7.948   1.193
34075SOL     OW 4231   8.267   9.015   0.701
34075SOL    HW1 4232   8.271   9.062   0.617
34075SOL    HW2 4233   8.176   8.982   0.700
34076SOL     OW 4234   8.879   7.699   1.088
34076SOL    HW1 4235   8.912   7.620   1.133
34076SOL    HW2 4236   8.827   7.742   1.159
34077SOL     OW 4237   8.465   7.454   1.152
34077SOL    HW1 4238   8.407   7.379   1.134
34077SOL    HW2 4239   8.553   7.412   1.151
34078SOL     OW 4240   8.200   8.775   0.329
34078SOL    HW1 4241   8.185   8.681   0.350
34078SOL    HW2 4242   8.294   8.784   0.347
34079SOL     OW 4243   8.051   9.007   1.261
34079SOL    HW1 4244   8.054   9.091   1.311
34079SOL    HW2 4245   8.144   9.002   1.233
34080SOL     OW 4246   8.773   7.478   0.169
34080SOL    HW1 4247   8.797   7.434   0.086
34080SOL    HW2 4248   8.685   7.439   0.187
34081SOL     OW 4249   8.762   7.927   0.703
34081SOL    HW1 4250   8.698   8.000   0.699
34081SOL    HW2 4251   8.739   7.886   0.789
34082SOL     OW 4252   9.053   7.662   0.849
34082SOL    HW1 4253   8.978   7.673   0.908
34082SOL    HW2 4254   9.047   7.741   0.792
34083SOL     OW 4255   7.506   8.535   0.265
34083SOL    HW1 4256   7.603   8.525   0.272
34083SOL    HW2 4257   7.474   8.448   0.291
34084SOL     OW 4258   8.344   9.086   0.362
34084SOL    HW1 4259   8.266   9.075   0.303
34084SOL    HW2 4260   8.320   9.168   0.411
34085SOL     OW 4261   7.686   8.093   2.001
34085SOL    HW1 4262   7.594   8.075   2.028
34085SOL    HW2 4263   7.689   8.065   1.908
34086SOL     OW 4264   7.667   7.734   2.867
34086SOL    HW1 4265   7.691   7.705   2.957
34086SOL    HW2 4266   7.583   7.685   2.853
34087SOL     OW 4267   7.449   7.854   2.485
34087SOL    HW1 4268   7.366   7.873   2.533
34087SOL    HW2 4269   7.430   7.768   2.447
34088SOL     OW 4270   8.016   8.737   3.055
34088SOL    HW1 4271   7.927   8.728   3.018
34088SOL    HW2 4272   8.016   8.830   3.083
34089SOL     OW 4273   8.994   8.980   2.575
34089SOL    HW1 4274   8.958   8.953   2.662
34089SOL    HW2 4275   8.918   8.974   2.515
34090SOL     OW 4276   8.567   8.143   2.573
34090SOL    HW1 4277   8.608   8.228   2.550
34090SOL    HW2 4278   8.525   8.162   2.658
34091SOL     OW 4279   9.232   8.051   2.096
34091SOL    HW1 4280   9.203   8.047   2.003
34091SOL    HW2 4281   9.185   7.977   2.135
34092SOL     OW 4282   8.219   8.620   2.919
34092SOL    HW1 4283   8.141   8.658   2.965
34092SOL    HW2 4284   8.236   8.689   2.853
34093SOL     OW 4285   8.323   8.215   3.670
34093SOL    HW1 4286   8.333   8.280   3.740
34093SOL    HW2 4287   8.352   8.264   3.591
34094SOL     OW 4288   8.137   8.479   2.523
34094SOL    HW1 4289   8.196   8.456   2.596
34094SOL    HW2 4290   8.065   8.527   2.567
34095SOL     OW 4291   8.134   8.605   3.677
34095SOL    HW1 4292   8.175   8.692   3.679
34095SOL    HW2 4293   8.045   8.625   3.640
34096SOL     OW 4294   7.766   8.875   2.941
34096SOL    HW1 4295   7.695   8.832   2.891
34096SOL    HW2 4296   7.819   8.921   2.872
34097SOL     OW 4297   8.918   8.944   3.227
34097SOL    HW1 4298   8.970   9.027   3.219
34097SOL    HW2 4299   8.870   8.962   3.308
34098SOL     OW 4300   7.871   7.841   3.405
34098SOL    HW1 4301   7.950   7.790   3.383
34098SOL    HW2 4302   7.798   7.783   3.377
34099SOL     OW 4303   9.069   7.901   2.604
34099SOL    HW1 4304   9.005   7.935   2.540
34099SOL    HW2 4305   9.045   7.949   2.684
34100SOL     OW 4306   7.672   9.170   2.342
34100SOL    HW1 4307   7.700   9.249   2.392
34100SOL    HW2 4308   7.731   9.173   2.265
34101SOL     OW 4309   7.702   8.886   2.395
34101SOL    HW1 4310   7.696   8.982   2.403
34101SOL    HW2 4311   7.631   8.856   2.453
34102SOL     OW 4312   7.720   8.532   2.772
34102SOL    HW1 4313   7.717   8.457   2.833
34102SOL    HW2 4314   7.660   8.595   2.817
34103SOL     OW 4315   8.055   9.241   3.282
34103SOL    HW1 4316   7.975   9.220   3.334
34103SOL    HW2 4317   8.071   9.335   3.307
34104SOL     OW 4318   8.022   8.433   1.979
34104SOL    HW1 4319   8.070   8.483   1.909
34104SOL    HW2 4320   8.066   8.468   2.059
34105SOL     OW 4321   9.056   7.549   3.362
34105SOL    HW1 4322   9.066   7.627   3.305
34105SOL    HW2 4323   9.070   7.587   3.450
34106SOL     OW 4324   7.568   8.102   2.425
34106SOL    HW1 4325   7.532   8.012   2.441
34106SOL    HW2 4326   7.560   8.144   2.512
34107SOL     OW 4327   9.297   9.181   2.209
34107SOL    HW1 4328   9.366   9.162   2.275
34107SOL    HW2 4329   9.317   9.273   2.185
34108SOL     OW 4330   7.520   9.044   1.979
34108SOL    HW1 4331   7.505   8.950   2.001
34108SOL    HW2 4332   7.485   9.088   2.059
34109SOL     OW 4333   9.122   8.367   2.499
34109SOL    HW1 4334   9.201   8.325   2.463
34109SOL    HW2 4335   9.096   8.427   2.427
34110SOL     OW 4336   9.090   8.574   2.300
34110SOL    HW1 4337   9.183   8.566   2.272
34110SOL    HW2 4338   9.096   8.643   2.369
34111SOL     OW 4339   7.559   8.186   3.442
34111SOL    HW1 4340   7.641   8.230   3.467
34111SOL    HW2 4341   7.494   8.258   3.447
34112SOL     OW 4342   8.038   8.855   2.620
34112SOL    HW1 4343   7.998   8.766   2.631
34112SOL    HW2 4344   8.033   8.863   2.523
34113SOL     OW 4345   8.739   8.684   3.295
34113SOL    HW1 4346   8.760   8.615   3.229
34113SOL    HW2 4347   8.806   8.666   3.364
34114SOL     OW 4348   8.279   7.446   2.357
34114SOL    HW1 4349   8.311   7.537   2.346
34114SOL    HW2 4350   8.183   7.460   2.365
34115SOL     OW 4351   7.633   8.419   3.133
34115SOL    HW1 4352   7.725   8.391   3.117
34115SOL    HW2 4353   7.582   8.351   3.087
34116SOL     OW 4354   8.997   8.388   2.049
34116SOL    HW1 4355   8.911   8.353   2.081
34116SOL    HW2 4356   9.029   8.435   2.128
34117SOL     OW 4357   8.620   9.246   3.478
34117SOL    HW1 4358   8.625   9.316   3.410
34117SOL    HW2 4359   8.648   9.169   3.424
34118SOL     OW 4360   7.781   7.679   3.680
34118SOL    HW1 4361   7.831   7.757   3.654
34118SOL    HW2 4362   7.701   7.719   3.719
34119SOL     OW 4363   8.921   8.871   2.819
34119SOL    HW1 4364   8.853   8.893   2.885
34119SOL    HW2 4365   8.893   8.781   2.791
34120SOL     OW 4366   9.101   9.190   2.454
34120SOL    HW1 4367   9.085   9.156   2.365
34120SOL    HW2 4368   9.071   9.115   2.509
34121SOL     OW 4369   8.036   8.166   2.115
34121SOL    HW1 4370   8.039   8.255   2.076
34121SOL    HW2 4371   7.967   8.174   2.183
34122SOL     OW 4372   8.712   7.786   2.779
34122SOL    HW1 4373   8.624   7.751   2.803
34122SOL    HW2 4374   8.771   7.743   2.845
34123SOL     OW 4375   9.037   9.095   2.198
34123SOL    HW1 4376   9.131   9.116   2.184
34123SOL    HW2 4377   9.009   9.080   2.105
34124SOL     OW 4378   8.263   8.068   3.319
34124SOL    HW1 4379   8.238   8.035   3.408
34124SOL    HW2 4380   8.216   8.004   3.261
34125SOL     OW 4381   8.849   7.929   3.522
34125SOL    HW1 4382   8.854   7.986   3.601
34125SOL    HW2 4383   8.903   7.851   3.549
34126SOL     OW 4384   8.429   8.343   3.443
34126SOL    HW1 4385   8.473   8.262   3.410
34126SOL    HW2 4386   8.375   8.368   3.365
34127SOL     OW 4387   8.425   7.850   3.088
34127SOL    HW1 4388   8.332   7.874   3.103
34127SOL    HW2 4389   8.421   7.797   3.008
34128SOL     OW 4390   8.492   8.134   2.269
34128SOL    HW1 4391   8.502   8.152   2.364
34128SOL    HW2 4392   8.406   8.088   2.267
34129SOL     OW 4393   7.552   8.251   2.652
34129SOL    HW1 4394   7.623   8.254   2.718
34129SOL    HW2 4395   7.500   8.330   2.674
34130SOL     OW 4396   7.545   9.298   3.437
34130SOL    HW1 4397   7.562   9.283   3.533
34130SOL    HW2 4398   7.472   9.238   3.419
34131SOL     OW 4399   8.328   7.814   2.074
34131SOL    HW1 4400   8.367   7.871   2.007
34131SOL    HW2 4401   8.347   7.727   2.037
34132SOL     OW 4402   9.170   8.050   3.711
34132SOL    HW1 4403   9.123   8.122   3.664
34132SOL    HW2 4404   9.193   7.992   3.636
34133SOL     OW 4405   8.808   8.599   2.425
34133SOL    HW1 4406   8.886   8.586   2.370
34133SOL    HW2 4407   8.757   8.661   2.371
34134SOL     OW 4408   7.997   7.646   2.751
34134SOL    HW1 4409   8.004   7.657   2.848
34134SOL    HW2 4410   7.985   7.737   2.720
34135SOL     OW 4411   8.438   8.891   2.339
34135SOL    HW1 4412   8.391   8.956   2.282
34135SOL    HW2 4413   8.451   8.940   2.421
34136SOL     OW 4414   7.795   9.262   2.724
34136SOL    HW1 4415   7.844   9.179   2.731
34136SOL    HW2 4416   7.863   9.328   2.745
34137SOL     OW 4417   9.247   8.500   2.720
34137SOL    HW1 4418   9.195   8.475   2.641
34137SOL    HW2 4419   9.182   8.489   2.791
34138SOL     OW 4420   8.671   9.023   3.341
34138SOL    HW1 4421   8.695   8.931   3.354
34138SOL    HW2 4422   8.612   9.013   3.265
34139SOL     OW 4423   7.750   8.390   2.123
34139SOL    HW1 4424   7.831   8.410   2.074
34139SOL    HW2 4425   7.721   8.308   2.080
34140SOL     OW 4426   8.925   8.195   2.572
34140SOL    HW1 4427   8.930   8.165   2.663
34140SOL    HW2 4428   9.004   8.253   2.565
34141SOL     OW 4429   7.910   8.717   3.578
34141SOL    HW1 4430   7.867   8.719   3.489
34141SOL    HW2 4431   7.831   8.722   3.635
34142SOL     OW 4432   8.537   9.223   2.096
34142SOL    HW1 4433   8.475   9.162   2.140
34142SOL    HW2 4434   8.558   9.176   2.013
34143SOL     OW 4435   7.621   7.733   3.366
34143SOL    HW1 4436   7.543   7.787   3.389
34143SOL    HW2 4437   7.595   7.645   3.399
34144SOL     OW 4438   9.074   8.809   1.948
34144SOL    HW1 4439   9.025   8.893   1.936
34144SOL    HW2 4440   9.014   8.744   1.910
34145SOL     OW 4441   7.902   9.196   2.174
34145SOL    HW1 4442   7.951   9.236   2.248
34145SOL    HW2 4443   7.971   9.149   2.124
34146SOL     OW 4444   8.847   7.582   2.308
34146SOL    HW1 4445   8.838   7.533   2.224
34146SOL    HW2 4446   8.943   7.581   2.322
34147SOL     OW 4447   7.698   9.239   3.090
34147SOL    HW1 4448   7.755   9.169   3.125
34147SOL    HW2 4449   7.684   9.211   2.998
34148SOL     OW 4450   8.403   9.147   2.751
34148SOL    HW1 4451   8.488   9.102   2.753
34148SOL    HW2 4452   8.356   9.096   2.680
34149SOL     OW 4453   7.844   8.132   2.325
34149SOL    HW1 4454   7.867   8.039   2.345
34149SOL    HW2 4455   7.749   8.133   2.348
34150SOL     OW 4456   8.989   7.708   3.596
34150SOL    HW1 4457   8.983   7.712   3.694
34150SOL    HW2 4458   8.932   7.633   3.577
34151SOL     OW 4459   8.079   7.584   1.952
34151SOL    HW1 4460   8.144   7.522   1.986
34151SOL    HW2 4461   8.033   7.531   1.883
34152SOL     OW 4462   8.222   7.727   3.601
34152SOL    HW1 4463   8.297   7.665   3.608
34152SOL    HW2 4464   8.165   7.696   3.673
34153SOL     OW 4465   8.325   8.999   3.058
34153SOL    HW1 4466   8.321   8.970   2.965
34153SOL    HW2 4467   8.391   8.940   3.096
34154SOL     OW 4468   8.791   8.040   3.282
34154SOL    HW1 4469   8.825   8.007   3.368
34154SOL    HW2 4470   8.838   8.124   3.270
34155SOL     OW 4471   8.267   8.858   2.791
34155SOL    HW1 4472   8.353   8.849   2.746
34155SOL    HW2 4473   8.205   8.862   2.716
34156SOL     OW 4474   8.392   7.972   2.772
34156SOL    HW1 4475   8.369   7.962   2.676
34156SOL    HW2 4476   8.415   7.881   2.793
34157SOL     OW 4477   8.006   7.501   2.365
34157SOL    HW1 4478   7.929   7.508   2.424
34157SOL    HW2 4479   7.991   7.577   2.305
34158SOL     OW 4480   8.892   8.617   1.885
34158SOL    HW1 4481   8.918   8.542   1.941
34158SOL    HW2 4482   8.806   8.642   1.920
34159SOL     OW 4483   7.730   7.479   2.052
34159SOL    HW1 4484   7.792   7.550   2.030
34159SOL    HW2 4485   7.790   7.414   2.094
34160SOL     OW 4486   8.378   7.700   2.345
34160SOL    HW1 4487   8.359   7.750   2.265
34160SOL    HW2 4488   8.474   7.716   2.355
34161SOL     OW 4489   8.541   8.124   3.338
34161SOL    HW1 4490   8.482   8.047   3.332
34161SOL    HW2 4491   8.630   8.088   3.321
34162SOL     OW 4492   8.673   9.032   2.664
34162SOL    HW1 4493   8.675   9.083   2.581
34162SOL    HW2 4494   8.755   9.058   2.706
34163SOL     OW 4495   7.914   8.613   2.604
34163SOL    HW1 4496   7.841   8.582   2.662
34163SOL    HW2 4497   7.879   8.587   2.516
34164SOL     OW 4498   8.709   9.248   2.471
34164SOL    HW1 4499   8.763   9.312   2.420
34164SOL    HW2 4500   8.659   9.307   2.530
34165SOL     OW 4501   8.511   7.977   1.891
34165SOL    HW1 4502   8.466   8.061   1.876
34165SOL    HW2 4503   8.578   7.998   1.959
34166SOL     OW 4504   7.518   7.994   3.260
34166SOL    HW1 4505   7.613   7.980   3.245
34166SOL    HW2 4506   7.519   8.074   3.317
34167SOL     OW 4507   8.019   7.676   3.022
34167SOL    HW1 4508   8.064   7.606   3.070
34167SOL    HW2 4509   7.929   7.669   3.058
34168SOL     OW 4510   8.330   7.912   2.524
34168SOL    HW1 4511   8.275   7.958   2.459
34168SOL    HW2 4512   8.340   7.824   2.484
34169SOL     OW 4513   8.442   7.530   2.645
34169SOL    HW1 4514   8.414   7.507   2.556
34169SOL    HW2 4515   8.435   7.445   2.693
34170SOL     OW 4516   8.866   8.620   2.743
34170SOL    HW1 4517   8.802   8.551   2.763
34170SOL    HW2 4518   8.870   8.614   2.646
34171SOL     OW 4519   8.944   8.017   2.835
34171SOL    HW1 4520   8.882   7.945   2.853
34171SOL    HW2 4521   8.998   8.021   2.916
34172SOL     OW 4522   9.290   8.270   2.264
34172SOL    HW1 4523   9.345   8.211   2.319
34172SOL    HW2 4524   9.278   8.214   2.185
34173SOL     OW 4525   7.937   8.866   1.986
34173SOL    HW1 4526   7.856   8.852   2.039
34173SOL    HW2 4527   7.925   8.802   1.915
34174SOL     OW 4528   9.121   8.735   2.525
34174SOL    HW1 4529   9.218   8.741   2.529
34174SOL    HW2 4530   9.090   8.823   2.550
34175SOL     OW 4531   8.847   8.046   1.922
34175SOL    HW1 4532   8.801   8.010   2.000
34175SOL    HW2 4533   8.939   8.023   1.941
34176SOL     OW 4534   7.968   7.688   2.179
34176SOL    HW1 4535   8.014   7.660   2.098
34176SOL    HW2 4536   7.938   7.776   2.151
34177SOL     OW 4537   9.179   8.677   3.439
34177SOL    HW1 4538   9.263   8.630   3.448
34177SOL    HW2 4539   9.208   8.770   3.449
34178SOL     OW 4540   8.512   8.830   3.226
34178SOL    HW1 4541   8.432   8.779   3.247
34178SOL    HW2 4542   8.582   8.762   3.235
34179SOL     OW 4543   9.057   9.049   3.493
34179SOL    HW1 4544   9.062   9.086   3.403
34179SOL    HW2 4545   9.140   9.000   3.499
34180SOL     OW 4546   8.559   8.685   2.957
34180SOL    HW1 4547   8.467   8.665   2.977
34180SOL    HW2 4548   8.551   8.727   2.870
34181SOL     OW 4549   9.045   8.539   2.941
34181SOL    HW1 4550   9.056   8.604   3.014
34181SOL    HW2 4551   8.994   8.591   2.876
34182SOL     OW 4552   8.366   7.549   3.258
34182SOL    HW1 4553   8.393   7.524   3.167
34182SOL    HW2 4554   8.448   7.586   3.294
34183SOL     OW 4555   8.458   8.575   3.594
34183SOL    HW1 4556   8.366   8.591   3.620
34183SOL    HW2 4557   8.450   8.495   3.538
34184SOL     OW 4558   8.160   8.507   2.203
34184SOL    HW1 4559   8.146   8.479   2.295
34184SOL    HW2 4560   8.239   8.454   2.177
34185SOL     OW 4561   7.873   8.257   3.128
34185SOL    HW1 4562   7.947   8.258   3.192
34185SOL    HW2 4563   7.831   8.172   3.146
34186SOL     OW 4564   8.733   7.828   3.129
34186SOL    HW1 4565   8.754   7.905   3.186
34186SOL    HW2 4566   8.644   7.850   3.096
34187SOL     OW 4567   7.527   9.014   3.216
34187SOL    HW1 4568   7.523   9.096   3.165
34187SOL    HW2 4569   7.623   8.994   3.214
34188SOL     OW 4570   7.814   8.545   2.363
34188SOL    HW1 4571   7.841   8.610   2.297
34188SOL    HW2 4572   7.789   8.469   2.308
34189SOL     OW 4573   7.985   7.989   2.708
34189SOL    HW1 4574   8.015   8.053   2.640
34189SOL    HW2 4575   8.048   8.005   2.780
34190SOL     OW 4576   8.674   8.786   2.253
34190SOL    HW1 4577   8.718   8.863   2.293
34190SOL    HW2 4578   8.581   8.804   2.276
34191SOL     OW 4579   8.747   8.913   3.023
34191SOL    HW1 4580   8.807   8.904   3.100
34191SOL    HW2 4581   8.684   8.841   3.035
34192SOL     OW 4582   9.030   8.062   2.333
34192SOL    HW1 4583   8.980   8.115   2.397
34192SOL    HW2 4584   9.061   8.128   2.270
34193SOL     OW 4585   7.787   8.955   3.190
34193SOL    HW1 4586   7.776   8.922   3.098
34193SOL    HW2 4587   7.882   8.978   3.188
34194SOL     OW 4588   7.882   8.176   3.489
34194SOL    HW1 4589   7.940   8.218   3.422
34194SOL    HW2 4590   7.905   8.083   3.478
34195SOL     OW 4591   9.065   8.231   3.547
34195SOL    HW1 4592   8.974   8.264   3.541
34195SOL    HW2 4593   9.107   8.277   3.472
34196SOL     OW 4594   8.432   7.561   3.616
34196SOL    HW1 4595   8.490   7.636   3.599
34196SOL    HW2 4596   8.484   7.489   3.577
34197SOL     OW 4597   7.963   7.474   3.613
34197SOL    HW1 4598   7.918   7.419   3.547
34197SOL    HW2 4599   7.895   7.542   3.631
34198SOL     OW 4600   8.057   8.333   2.928
34198SOL    HW1 4601   8.069   8.428   2.922
34198SOL    HW2 4602   7.989   8.322   2.996
34199SOL     OW 4603   8.795   8.303   2.882
34199SOL    HW1 4604   8.712   8.264   2.852
34199SOL    HW2 4605   8.853   8.226   2.889
34200SOL     OW 4606   8.670   7.971   2.126
34200SOL    HW1 4607   8.678   7.894   2.187
34200SOL    HW2 4608   8.611   8.028   2.178
34201SOL     OW 4609   7.756   7.649   3.116
34201SOL    HW1 4610   7.699   7.672   3.191
34201SOL    HW2 4611   7.737   7.554   3.106
34202SOL     OW 4612   7.479   8.750   3.148
34202SOL    HW1 4613   7.497   8.688   3.222
34202SOL    HW2 4614   7.490   8.838   3.187
34203SOL     OW 4615   8.158   8.079   2.897
34203SOL    HW1 4616   8.247   8.068   2.857
34203SOL    HW2 4617   8.140   8.175   2.892
34204SOL     OW 4618   9.210   8.396   3.704
34204SOL    HW1 4619   9.154   8.336   3.650
34204SOL    HW2 4620   9.154   8.409   3.782
34205SOL     OW 4621   7.748   7.517   2.472
34205SOL    HW1 4622   7.717   7.605   2.501
34205SOL    HW2 4623   7.755   7.470   2.558
34206SOL     OW 4624   9.048   7.829   2.206
34206SOL    HW1 4625   9.074   7.758   2.266
34206SOL    HW2 4626   9.039   7.906   2.266
34207SOL     OW 4627   8.505   8.205   2.845
34207SOL    HW1 4628   8.480   8.216   2.939
34207SOL    HW2 4629   8.478   8.112   2.829
34208SOL     OW 4630   8.438   8.976   3.530
34208SOL    HW1 4631   8.455   9.071   3.512
34208SOL    HW2 4632   8.371   8.963   3.462
34209SOL     OW 4633   9.303   8.931   3.467
34209SOL    HW1 4634   9.325   8.961   3.377
34209SOL    HW2 4635   9.376   8.968   3.519
34210SOL     OW 4636   7.800   8.353   3.665
34210SOL    HW1 4637   7.889   8.363   3.699
34210SOL    HW2 4638   7.813   8.279   3.602
34211SOL     OW 4639   8.954   7.702   1.988
34211SOL    HW1 4640   8.887   7.643   2.025
34211SOL    HW2 4641   8.994   7.744   2.068
34212SOL     OW 4642   8.717   8.281   1.885
34212SOL    HW1 4643   8.761   8.195   1.901
34212SOL    HW2 4644   8.757   8.306   1.799
34213SOL     OW 4645   8.517   8.809   2.709
34213SOL    HW1 4646   8.533   8.734   2.648
34213SOL    HW2 4647   8.586   8.875   2.686
34214SOL     OW 4648   7.732   8.257   2.865
34214SOL    HW1 4649   7.826   8.271   2.849
34214SOL    HW2 4650   7.732   8.162   2.887
34215SOL     OW 4651   7.774   7.986   2.867
34215SOL    HW1 4652   7.743   7.895   2.853
34215SOL    HW2 4653   7.841   7.995   2.795
34216SOL     OW 4654   8.601   7.817   3.557
34216SOL    HW1 4655   8.561   7.872   3.628
34216SOL    HW2 4656   8.690   7.856   3.550
34217SOL     OW 4657   8.617   7.649   3.345
34217SOL    HW1 4658   8.611   7.716   3.416
34217SOL    HW2 4659   8.663   7.698   3.275
34218SOL     OW 4660   7.455   8.774   2.052
34218SOL    HW1 4661   7.363   8.789   2.018
34218SOL    HW2 4662   7.449   8.683   2.087
34219SOL     OW 4663   7.545   9.238   2.810
34219SOL    HW1 4664   7.518   9.164   2.751
34219SOL    HW2 4665   7.636   9.256   2.778
34220SOL     OW 4666   7.934   9.029   2.794
34220SOL    HW1 4667   8.003   9.098   2.807
34220SOL    HW2 4668   7.979   8.968   2.733
34221SOL     OW 4669   8.421   8.219   3.110
34221SOL    HW1 4670   8.476   8.187   3.183
34221SOL    HW2 4671   8.334   8.187   3.137
34222SOL     OW 4672   7.476   7.974   2.972
34222SOL    HW1 4673   7.555   7.955   2.919
34222SOL    HW2 4674   7.513   7.987   3.060
34223SOL     OW 4675   7.667   7.963   3.580
34223SOL    HW1 4676   7.720   7.919   3.511
34223SOL    HW2 4677   7.614   8.027   3.528
34224SOL     OW 4678   8.832   8.372   3.513
34224SOL    HW1 4679   8.866   8.463   3.512
34224SOL    HW2 4680   8.827   8.350   3.418
34225SOL     OW 4681   8.251   8.027   2.231
34225SOL    HW1 4682   8.260   7.952   2.170
34225SOL    HW2 4683   8.174   8.075   2.195
34226SOL     OW 4684   9.085   8.069   3.072
34226SOL    HW1 4685   9.056   8.006   3.139
34226SOL    HW2 4686   9.167   8.029   3.038
34227SOL     OW 4687   7.690   8.989   3.573
34227SOL    HW1 4688   7.664   9.054   3.641
34227SOL    HW2 4689   7.705   8.909   3.627
34228SOL     OW 4690   8.137   7.924   3.123
34228SOL    HW1 4691   8.093   7.845   3.086
34228SOL    HW2 4692   8.133   7.987   3.048
34229SOL     OW 4693   8.355   9.142   3.327
34229SOL    HW1 4694   8.354   9.116   3.234
34229SOL    HW2 4695   8.359   9.240   3.321
34230SOL     OW 4696   7.888   7.922   2.057
34230SOL    HW1 4697   7.956   7.991   2.062
34230SOL    HW2 4698   7.806   7.975   2.053
34231SOL     OW 4699   7.552   8.572   3.333
34231SOL    HW1 4700   7.568   8.521   3.415
34231SOL    HW2 4701   7.579   8.509   3.263
34232SOL     OW 4702   8.761   8.501   3.089
34232SOL    HW1 4703   8.783   8.438   3.017
34232SOL    HW2 4704   8.703   8.564   3.043
34233SOL     OW 4705   8.753   8.307   2.155
34233SOL    HW1 4706   8.675   8.274   2.202
34233SOL    HW2 4707   8.726   8.303   2.062
34234SOL     OW 4708   9.207   9.187   2.997
34234SOL    HW1 4709   9.281   9.212   2.938
34234SOL    HW2 4710   9.197   9.093   2.972
34235SOL     OW 4711   8.689   9.180   2.973
34235SOL    HW1 4712   8.776   9.209   2.940
34235SOL    HW2 4713   8.702   9.084   2.982
34236SOL     OW 4714   7.548   8.703   2.893
34236SOL    HW1 4715   7.518   8.722   2.985
34236SOL    HW2 4716   7.469   8.662   2.854
34237SOL     OW 4717   8.141   9.101   3.590
34237SOL    HW1 4718   8.092   9.184   3.607
34237SOL    HW2 4719   8.176   9.117   3.502
34238SOL     OW 4720   9.127   7.579   2.354
34238SOL    HW1 4721   9.207   7.568   2.301
34238SOL    HW2 4722   9.128   7.498   2.410
34239SOL     OW 4723   8.807   9.019   2.350
34239SOL    HW1 4724   8.871   9.038   2.279
34239SOL    HW2 4725   8.770   9.107   2.368
34240SOL     OW 4726   7.595   9.245   3.699
34240SOL    HW1 4727   7.555   9.177   3.757
34240SOL    HW2 4728   7.654   9.289   3.762
34241SOL     OW 4729   8.702   8.371   2.528
34241SOL    HW1 4730   8.782   8.317   2.539
34241SOL    HW2 4731   8.737   8.449   2.480
34242SOL     OW 4732   8.262   8.709   3.305
34242SOL    HW1 4733   8.224   8.758   3.381
34242SOL    HW2 4734   8.198   8.730   3.236
34243SOL     OW 4735   8.105   9.061   2.029
34243SOL    HW1 4736   8.128   9.074   1.936
34243SOL    HW2 4737   8.048   8.982   2.022
34244SOL     OW 4738   9.059   9.165   3.238
34244SOL    HW1 4739   9.114   9.178   3.158
34244SOL    HW2 4740   9.051   9.256   3.272
34245SOL     OW 4741   9.289   7.630   2.834
34245SOL    HW1 4742   9.319   7.540   2.807
34245SOL    HW2 4743   9.202   7.638   2.791
34246SOL     OW 4744   7.694   7.770   2.564
34246SOL    HW1 4745   7.609   7.814   2.544
34246SOL    HW2 4746   7.698   7.776   2.661
34247SOL     OW 4747   8.637   9.085   1.888
34247SOL    HW1 4748   8.639   8.988   1.889
34247SOL    HW2 4749   8.610   9.106   1.796
34248SOL     OW 4750   8.261   8.443   3.252
34248SOL    HW1 4751   8.284   8.442   3.158
34248SOL    HW2 4752   8.262   8.538   3.274
34249SOL     OW 4753   8.368   8.369   2.125
34249SOL    HW1 4754   8.446   8.411   2.084
34249SOL    HW2 4755   8.404   8.289   2.167
34250SOL     OW 4756   8.960   9.055   1.938
34250SOL    HW1 4757   8.869   9.078   1.921
34250SOL    HW2 4758   8.996   9.056   1.846
34251SOL     OW 4759   7.784   8.720   3.347
34251SOL    HW1 4760   7.777   8.795   3.286
34251SOL    HW2 4761   7.701   8.672   3.332
34252SOL     OW 4762   9.059   8.750   3.125
34252SOL    HW1 4763   9.117   8.734   3.201
34252SOL    HW2 4764   9.000   8.821   3.158
34253SOL     OW 4765   8.500   8.564   2.589
34253SOL    HW1 4766   8.425   8.512   2.623
34253SOL    HW2 4767   8.563   8.495   2.565
34254SOL     OW 4768   8.474   7.683   2.858
34254SOL    HW1 4769   8.457   7.641   2.771
34254SOL    HW2 4770   8.478   7.605   2.915
34255SOL     OW 4771   8.065   8.935   2.357
34255SOL    HW1 4772   8.118   8.891   2.289
34255SOL    HW2 4773   7.987   8.965   2.309
34256SOL     OW 4774   9.166   7.808   3.244
34256SOL    HW1 4775   9.230   7.881   3.233
34256SOL    HW2 4776   9.206   7.739   3.185
34257SOL     OW 4777   7.700   8.826   2.133
34257SOL    HW1 4778   7.603   8.812   2.123
34257SOL    HW2 4779   7.707   8.849   2.228
34258SOL     OW 4780   7.570   8.465   3.573
34258SOL    HW1 4781   7.495   8.444   3.633
34258SOL    HW2 4782   7.647   8.427   3.620
34259SOL     OW 4783   8.129   7.649   3.351
34259SOL    HW1 4784   8.215   7.619   3.315
34259SOL    HW2 4785   8.153   7.681   3.439
34260SOL     OW 4786   7.541   7.805   1.908
34260SOL    HW1 4787   7.451   7.793   1.877
34260SOL    HW2 4788   7.574   7.875   1.849
34261SOL     OW 4789   8.898   8.305   3.251
34261SOL    HW1 4790   8.855   8.368   3.190
34261SOL    HW2 4791   8.990   8.312   3.222
34262SOL     OW 4792   7.492   7.618   2.152
34262SOL    HW1 4793   7.490   7.706   2.112
34262SOL    HW2 4794   7.574   7.582   2.116
34263SOL     OW 4795   8.657   8.794   1.967
34263SOL    HW1 4796   8.579   8.738   1.977
34263SOL    HW2 4797   8.685   8.806   2.059
34264SOL     OW 4798   8.076   8.254   3.299
34264SOL    HW1 4799   8.130   8.334   3.297
34264SOL    HW2 4800   8.145   8.185   3.302
34265SOL     OW 4801   8.952   9.205   2.828
34265SOL    HW1 4802   8.988   9.257   2.755
34265SOL    HW2 4803   9.030   9.190   2.883
34266SOL     OW 4804   8.180   7.992   3.555
34266SOL    HW1 4805   8.217   8.049   3.625
34266SOL    HW2 4806   8.194   7.901   3.586
34267SOL     OW 4807   8.910   8.636   3.497
34267SOL    HW1 4808   8.904   8.637   3.595
34267SOL    HW2 4809   9.004   8.654   3.482
34268SOL     OW 4810   7.820   9.187   3.424
34268SOL    HW1 4811   7.736   9.232   3.407
34268SOL    HW2 4812   7.790   9.102   3.462
34269SOL     OW 4813   9.142   8.337   3.110
34269SOL    HW1 4814   9.126   8.248   3.073
34269SOL    HW2 4815   9.109   8.396   3.039
34270SOL     OW 4816   8.649   7.779   2.327
34270SOL    HW1 4817   8.718   7.710   2.322
34270SOL    HW2 4818   8.679   7.832   2.404
34271SOL     OW 4819   8.045   8.191   2.520
34271SOL    HW1 4820   8.077   8.281   2.502
34271SOL    HW2 4821   7.974   8.181   2.455
34272SOL     OW 4822   9.221   7.828   3.508
34272SOL    HW1 4823   9.194   7.839   3.415
34272SOL    HW2 4824   9.143   7.780   3.543
34273SOL     OW 4825   9.206   8.386   3.372
34273SOL    HW1 4826   9.187   8.480   3.359
34273SOL    HW2 4827   9.209   8.354   3.280
34274SOL     OW 4828   8.286   8.814   1.888
34274SOL    HW1 4829   8.271   8.836   1.981
34274SOL    HW2 4830   8.334   8.890   1.852
34275SOL     OW 4831   8.099   9.239   2.785
34275SOL    HW1 4832   8.092   9.334   2.767
34275SOL    HW2 4833   8.194   9.221   2.777
34276SOL     OW 4834   8.324   8.398   2.722
34276SOL    HW1 4835   8.368   8.321   2.760
34276SOL    HW2 4836   8.311   8.455   2.799
34277SOL     OW 4837   8.562   8.478   1.966
34277SOL    HW1 4838   8.515   8.515   1.888
34277SOL    HW2 4839   8.609   8.403   1.925
34278SOL     OW 4840   9.314   9.002   2.687
34278SOL    HW1 4841   9.221   9.000   2.663
34278SOL    HW2 4842   9.324   8.928   2.746
34279SOL     OW 4843   7.688   8.764   3.725
34279SOL    HW1 4844   7.621   8.702   3.691
34279SOL    HW2 4845   7.653   8.784   3.813
34280SOL     OW 4846   7.529   8.712   2.530
34280SOL    HW1 4847   7.536   8.653   2.606
34280SOL    HW2 4848   7.596   8.675   2.471
34281SOL     OW 4849   8.131   8.854   3.489
34281SOL    HW1 4850   8.050   8.805   3.515
34281SOL    HW2 4851   8.112   8.943   3.525
34282SOL     OW 4852   9.271   7.611   3.091
34282SOL    HW1 4853   9.275   7.514   3.092
34282SOL    HW2 4854   9.279   7.627   2.995
34283SOL     OW 4855   7.892   7.871   2.398
34283SOL    HW1 4856   7.923   7.797   2.345
34283SOL    HW2 4857   7.838   7.831   2.468
34284SOL     OW 4858   9.165   8.931   2.937
34284SOL    HW1 4859   9.082   8.906   2.892
34284SOL    HW2 4860   9.163   8.872   3.014
34285SOL     OW 4861   7.777   7.984   3.147
34285SOL    HW1 4862   7.848   7.933   3.189
34285SOL    HW2 4863   7.787   7.961   3.053
34286SOL     OW 4864   8.269   9.036   2.545
34286SOL    HW1 4865   8.267   9.066   2.454
34286SOL    HW2 4866   8.183   8.992   2.553
34287SOL     OW 4867   8.881   7.688   2.958
34287SOL    HW1 4868   8.916   7.606   2.995
34287SOL    HW2 4869   8.834   7.728   3.035
34288SOL     OW 4870   8.462   7.452   3.017
34288SOL    HW1 4871   8.408   7.377   2.989
34288SOL    HW2 4872   8.552   7.412   3.015
34289SOL     OW 4873   8.228   8.789   2.178
34289SOL    HW1 4874   8.200   8.696   2.173
34289SOL    HW2 4875   8.309   8.782   2.229
34290SOL     OW 4876   8.046   9.012   3.145
34290SOL    HW1 4877   8.050   9.099   3.190
34290SOL    HW2 4878   8.137   9.006   3.113
34291SOL     OW 4879   8.766   7.492   2.056
34291SOL    HW1 4880   8.780   7.436   1.978
34291SOL    HW2 4881   8.678   7.461   2.085
34292SOL     OW 4882   8.718   7.923   2.544
34292SOL    HW1 4883   8.662   8.002   2.552
34292SOL    HW2 4884   8.714   7.884   2.633
34293SOL     OW 4885   9.045   7.658   2.727
34293SOL    HW1 4886   8.971   7.664   2.788
34293SOL    HW2 4887   9.039   7.741   2.676
34294SOL     OW 4888   7.494   8.521   2.179
34294SOL    HW1 4889   7.587   8.510   2.156
34294SOL    HW2 4890   7.469   8.428   2.195
34295SOL     OW 4891   8.320   9.092   2.195
34295SOL    HW1 4892   8.239   9.083   2.142
34295SOL    HW2 4893   8.306   9.175   2.246
34296SOL     OW 4894   7.684   8.087   3.852
34296SOL    HW1 4895   7.594   8.070   3.882
34296SOL    HW2 4896   7.684   8.054   3.761
34297SOL     OW 4897   7.674   7.728   4.703
34297SOL    HW1 4898   7.694   7.710   4.797
34297SOL    HW2 4899   7.586   7.685   4.697
34298SOL     OW 4900   7.446   7.857   4.348
34298SOL    HW1 4901   7.367   7.880   4.400
34298SOL    HW2 4902   7.421   7.771   4.313
34299SOL     OW 4903   8.019   8.739   4.912
34299SOL    HW1 4904   7.929   8.732   4.879
34299SOL    HW2 4905   8.024   8.832   4.942
34300SOL     OW 4906   8.982   8.977   4.431
34300SOL    HW1 4907   8.941   8.939   4.511
34300SOL    HW2 4908   8.911   8.978   4.365
34301SOL     OW 4909   8.580   8.131   4.435
34301SOL    HW1 4910   8.610   8.220   4.410
34301SOL    HW2 4911   8.547   8.145   4.525
34302SOL     OW 4912   9.227   8.056   3.966
34302SOL    HW1 4913   9.201   8.057   3.871
34302SOL    HW2 4914   9.164   7.993   4.003
34303SOL     OW 4915   8.176   8.604   4.733
34303SOL    HW1 4916   8.124   8.647   4.804
34303SOL    HW2 4917   8.220   8.681   4.694
34304SOL     OW 4918   8.342   8.193   5.520
34304SOL    HW1 4919   8.312   8.256   5.587
34304SOL    HW2 4920   8.362   8.249   5.443
34305SOL     OW 4921   8.139   8.483   4.378
34305SOL    HW1 4922   8.199   8.451   4.448
34305SOL    HW2 4923   8.072   8.531   4.431
34306SOL     OW 4924   8.140   8.601   5.529
34306SOL    HW1 4925   8.184   8.685   5.556
34306SOL    HW2 4926   8.054   8.631   5.495
34307SOL     OW 4927   7.767   8.877   4.791
34307SOL    HW1 4928   7.693   8.820   4.763
34307SOL    HW2 4929   7.794   8.922   4.710
34308SOL     OW 4930   8.918   8.951   5.096
34308SOL    HW1 4931   8.974   9.029   5.113
34308SOL    HW2 4932   8.850   8.961   5.165
34309SOL     OW 4933   7.874   7.846   5.275
34309SOL    HW1 4934   7.954   7.844   5.220
34309SOL    HW2 4935   7.810   7.794   5.222
34310SOL     OW 4936   9.062   7.899   4.465
34310SOL    HW1 4937   8.996   7.938   4.405
34310SOL    HW2 4938   9.039   7.943   4.549
34311SOL     OW 4939   7.694   9.182   4.225
34311SOL    HW1 4940   7.769   9.237   4.250
34311SOL    HW2 4941   7.717   9.164   4.132
34312SOL     OW 4942   8.572   8.793   5.378
34312SOL    HW1 4943   8.615   8.797   5.464
34312SOL    HW2 4944   8.527   8.706   5.385
34313SOL     OW 4945   7.694   8.894   4.258
34313SOL    HW1 4946   7.688   8.990   4.265
34313SOL    HW2 4947   7.622   8.863   4.316
34314SOL     OW 4948   7.724   8.531   4.622
34314SOL    HW1 4949   7.726   8.458   4.685
34314SOL    HW2 4950   7.670   8.596   4.671
34315SOL     OW 4951   8.046   9.238   5.126
34315SOL    HW1 4952   7.979   9.212   5.191
34315SOL    HW2 4953   8.074   9.326   5.158
34316SOL     OW 4954   8.078   8.427   3.865
34316SOL    HW1 4955   8.087   8.498   3.798
34316SOL    HW2 4956   8.168   8.394   3.869
34317SOL     OW 4957   9.054   7.551   5.216
34317SOL    HW1 4958   9.047   7.630   5.161
34317SOL    HW2 4959   9.075   7.589   5.302
34318SOL     OW 4960   7.557   8.104   4.288
34318SOL    HW1 4961   7.525   8.012   4.302
34318SOL    HW2 4962   7.550   8.141   4.379
34319SOL     OW 4963   9.286   9.183   4.074
34319SOL    HW1 4964   9.365   9.165   4.130
34319SOL    HW2 4965   9.303   9.274   4.047
34320SOL     OW 4966   7.506   9.049   3.851
34320SOL    HW1 4967   7.485   8.956   3.870
34320SOL    HW2 4968   7.476   9.094   3.932
34321SOL     OW 4969   9.150   8.333   4.372
34321SOL    HW1 4970   9.233   8.316   4.324
34321SOL    HW2 4971   9.112   8.404   4.321
34322SOL     OW 4972   9.082   8.565   4.169
34322SOL    HW1 4973   9.172   8.567   4.135
34322SOL    HW2 4974   9.089   8.631   4.241
34323SOL     OW 4975   7.575   8.195   5.308
34323SOL    HW1 4976   7.669   8.216   5.308
34323SOL    HW2 4977   7.540   8.275   5.352
34324SOL     OW 4978   8.027   8.861   4.484
34324SOL    HW1 4979   7.995   8.769   4.493
34324SOL    HW2 4980   8.023   8.873   4.387
34325SOL     OW 4981   8.732   8.666   5.146
34325SOL    HW1 4982   8.761   8.587   5.098
34325SOL    HW2 4983   8.781   8.657   5.230
34326SOL     OW 4984   8.278   7.450   4.211
34326SOL    HW1 4985   8.309   7.542   4.211
34326SOL    HW2 4986   8.182   7.461   4.227
34327SOL     OW 4987   7.629   8.428   4.971
34327SOL    HW1 4988   7.718   8.390   4.979
34327SOL    HW2 4989   7.577   8.355   4.936
34328SOL     OW 4990   8.997   8.424   3.921
34328SOL    HW1 4991   8.921   8.374   3.955
34328SOL    HW2 4992   9.034   8.460   4.004
34329SOL     OW 4993   8.628   9.245   5.332
34329SOL    HW1 4994   8.629   9.315   5.265
34329SOL    HW2 4995   8.650   9.165   5.280
34330SOL     OW 4996   7.796   7.678   5.544
34330SOL    HW1 4997   7.839   7.752   5.500
34330SOL    HW2 4998   7.713   7.719   5.573
34331SOL     OW 4999   8.916   8.877   4.686
34331SOL    HW1 5000   8.854   8.896   4.759
34331SOL    HW2 5001   8.889   8.787   4.660
34332SOL     OW 5002   9.125   9.181   4.342
34332SOL    HW1 5003   9.128   9.148   4.251
34332SOL    HW2 5004   9.076   9.109   4.386
34333SOL     OW 5005   8.038   8.209   4.046
34333SOL    HW1 5006   8.006   8.261   3.970
34333SOL    HW2 5007   7.955   8.174   4.084
34334SOL     OW 5008   8.721   7.774   4.627
34334SOL    HW1 5009   8.631   7.746   4.655
34334SOL    HW2 5010   8.776   7.738   4.699
34335SOL     OW 5011   9.029   9.091   4.035
34335SOL    HW1 5012   9.122   9.115   4.043
34335SOL    HW2 5013   9.021   9.083   3.938
34336SOL     OW 5014   8.265   8.072   5.193
34336SOL    HW1 5015   8.235   8.037   5.280
34336SOL    HW2 5016   8.211   8.016   5.133
34337SOL     OW 5017   8.845   7.934   5.388
34337SOL    HW1 5018   8.848   7.991   5.468
34337SOL    HW2 5019   8.904   7.861   5.413
34338SOL     OW 5020   8.415   8.335   5.303
34338SOL    HW1 5021   8.452   8.252   5.267
34338SOL    HW2 5022   8.366   8.369   5.225
34339SOL     OW 5023   8.410   7.834   4.960
34339SOL    HW1 5024   8.322   7.864   4.988
34339SOL    HW2 5025   8.390   7.770   4.890
34340SOL     OW 5026   8.469   8.165   4.139
34340SOL    HW1 5027   8.496   8.162   4.232
34340SOL    HW2 5028   8.396   8.100   4.139
34341SOL     OW 5029   7.553   8.251   4.520
34341SOL    HW1 5030   7.624   8.254   4.587
34341SOL    HW2 5031   7.506   8.334   4.537
34342SOL     OW 5032   7.550   9.260   5.285
34342SOL    HW1 5033   7.565   9.250   5.381
34342SOL    HW2 5034   7.456   9.279   5.281
34343SOL     OW 5035   8.322   7.813   3.939
34343SOL    HW1 5036   8.361   7.867   3.868
34343SOL    HW2 5037   8.334   7.724   3.902
34344SOL     OW 5038   9.170   8.042   5.558
34344SOL    HW1 5039   9.130   8.119   5.512
34344SOL    HW2 5040   9.190   7.984   5.483
34345SOL     OW 5041   8.802   8.606   4.289
34345SOL    HW1 5042   8.882   8.589   4.237
34345SOL    HW2 5043   8.758   8.675   4.236
34346SOL     OW 5044   7.993   7.645   4.610
34346SOL    HW1 5045   7.987   7.637   4.708
34346SOL    HW2 5046   7.982   7.740   4.597
34347SOL     OW 5047   8.428   8.891   4.223
34347SOL    HW1 5048   8.393   8.961   4.165
34347SOL    HW2 5049   8.436   8.936   4.308
34348SOL     OW 5050   9.264   8.507   4.615
34348SOL    HW1 5051   9.213   8.497   4.534
34348SOL    HW2 5052   9.198   8.489   4.684
34349SOL     OW 5053   8.672   9.006   5.215
34349SOL    HW1 5054   8.649   8.945   5.287
34349SOL    HW2 5055   8.625   8.967   5.141
34350SOL     OW 5056   7.755   8.390   3.972
34350SOL    HW1 5057   7.797   8.427   3.894
34350SOL    HW2 5058   7.720   8.306   3.937
34351SOL     OW 5059   8.929   8.200   4.430
34351SOL    HW1 5060   8.926   8.176   4.524
34351SOL    HW2 5061   9.016   8.245   4.423
34352SOL     OW 5062   7.908   8.717   5.446
34352SOL    HW1 5063   7.870   8.717   5.355
34352SOL    HW2 5064   7.827   8.726   5.498
34353SOL     OW 5065   8.535   9.230   3.974
34353SOL    HW1 5066   8.469   9.171   4.015
34353SOL    HW2 5067   8.547   9.188   3.887
34354SOL     OW 5068   7.619   7.736   5.217
34354SOL    HW1 5069   7.550   7.793   5.255
34354SOL    HW2 5070   7.603   7.652   5.261
34355SOL     OW 5071   9.078   8.806   3.806
34355SOL    HW1 5072   9.038   8.892   3.785
34355SOL    HW2 5073   9.007   8.742   3.783
34356SOL     OW 5074   7.903   9.189   4.040
34356SOL    HW1 5075   7.946   9.248   4.104
34356SOL    HW2 5076   7.973   9.172   3.976
34357SOL     OW 5077   8.833   7.581   4.170
34357SOL    HW1 5078   8.814   7.538   4.085
34357SOL    HW2 5079   8.928   7.572   4.176
34358SOL     OW 5080   7.694   9.244   4.955
34358SOL    HW1 5081   7.750   9.192   5.013
34358SOL    HW2 5082   7.671   9.181   4.885
34359SOL     OW 5083   8.403   9.154   4.606
34359SOL    HW1 5084   8.483   9.105   4.630
34359SOL    HW2 5085   8.366   9.101   4.533
34360SOL     OW 5086   7.817   8.134   4.191
34360SOL    HW1 5087   7.839   8.041   4.218
34360SOL    HW2 5088   7.722   8.136   4.212
34361SOL     OW 5089   8.987   7.711   5.445
34361SOL    HW1 5090   8.986   7.710   5.544
34361SOL    HW2 5091   8.927   7.638   5.426
34362SOL     OW 5092   8.083   7.586   3.822
34362SOL    HW1 5093   8.147   7.524   3.857
34362SOL    HW2 5094   8.037   7.532   3.754
34363SOL     OW 5095   8.228   7.717   5.470
34363SOL    HW1 5096   8.299   7.650   5.475
34363SOL    HW2 5097   8.167   7.688   5.539
34364SOL     OW 5098   8.333   8.982   4.919
34364SOL    HW1 5099   8.333   8.947   4.829
34364SOL    HW2 5100   8.399   8.927   4.965
34365SOL     OW 5101   8.794   8.041   5.144
34365SOL    HW1 5102   8.827   8.008   5.231
34365SOL    HW2 5103   8.840   8.127   5.135
34366SOL     OW 5104   8.253   8.862   4.648
34366SOL    HW1 5105   8.340   8.848   4.605
34366SOL    HW2 5106   8.192   8.860   4.572
34367SOL     OW 5107   8.400   7.969   4.637
34367SOL    HW1 5108   8.379   7.955   4.542
34367SOL    HW2 5109   8.421   7.879   4.665
34368SOL     OW 5110   8.009   7.495   4.229
34368SOL    HW1 5111   7.929   7.498   4.285
34368SOL    HW2 5112   7.998   7.576   4.175
34369SOL     OW 5113   8.889   8.617   3.761
34369SOL    HW1 5114   8.929   8.544   3.811
34369SOL    HW2 5115   8.805   8.628   3.807
34370SOL     OW 5116   7.726   7.493   3.919
34370SOL    HW1 5117   7.783   7.562   3.884
34370SOL    HW2 5118   7.791   7.432   3.959
34371SOL     OW 5119   8.380   7.702   4.215
34371SOL    HW1 5120   8.362   7.747   4.131
34371SOL    HW2 5121   8.476   7.716   4.224
34372SOL     OW 5122   8.540   8.123   5.198
34372SOL    HW1 5123   8.478   8.049   5.195
34372SOL    HW2 5124   8.627   8.083   5.189
34373SOL     OW 5125   8.685   9.018   4.501
34373SOL    HW1 5126   8.687   9.090   4.435
34373SOL    HW2 5127   8.758   9.043   4.558
34374SOL     OW 5128   7.918   8.615   4.456
34374SOL    HW1 5129   7.847   8.580   4.515
34374SOL    HW2 5130   7.886   8.588   4.368
34375SOL     OW 5131   8.713   9.249   4.335
34375SOL    HW1 5132   8.763   9.313   4.280
34375SOL    HW2 5133   8.661   9.308   4.392
34376SOL     OW 5134   8.517   7.979   3.753
34376SOL    HW1 5135   8.466   8.060   3.741
34376SOL    HW2 5136   8.579   8.000   3.825
34377SOL     OW 5137   7.516   8.006   5.122
34377SOL    HW1 5138   7.610   7.983   5.107
34377SOL    HW2 5139   7.524   8.086   5.179
34378SOL     OW 5140   7.992   7.608   4.877
34378SOL    HW1 5141   8.062   7.620   4.942
34378SOL    HW2 5142   7.917   7.651   4.920
34379SOL     OW 5143   8.329   7.911   4.390
34379SOL    HW1 5144   8.277   7.954   4.320
34379SOL    HW2 5145   8.348   7.825   4.350
34380SOL     OW 5146   8.482   7.507   4.488
34380SOL    HW1 5147   8.424   7.490   4.412
34380SOL    HW2 5148   8.459   7.433   4.547
34381SOL     OW 5149   8.871   8.625   4.610
34381SOL    HW1 5150   8.839   8.537   4.638
34381SOL    HW2 5151   8.865   8.619   4.514
34382SOL     OW 5152   8.931   8.013   4.692
34382SOL    HW1 5153   8.864   7.949   4.717
34382SOL    HW2 5154   8.984   8.024   4.773
34383SOL     OW 5155   9.301   8.268   4.115
34383SOL    HW1 5156   9.352   8.211   4.176
34383SOL    HW2 5157   9.274   8.203   4.047
34384SOL     OW 5158   7.942   8.866   3.843
34384SOL    HW1 5159   7.861   8.858   3.896
34384SOL    HW2 5160   7.919   8.817   3.763
34385SOL     OW 5161   9.129   8.725   4.377
34385SOL    HW1 5162   9.227   8.731   4.381
34385SOL    HW2 5163   9.099   8.814   4.403
34386SOL     OW 5164   8.848   8.038   3.784
34386SOL    HW1 5165   8.800   8.008   3.864
34386SOL    HW2 5166   8.934   7.996   3.798
34387SOL     OW 5167   7.974   7.691   4.050
34387SOL    HW1 5168   8.015   7.657   3.968
34387SOL    HW2 5169   7.943   7.778   4.019
34388SOL     OW 5170   9.184   8.680   5.295
34388SOL    HW1 5171   9.270   8.639   5.306
34388SOL    HW2 5172   9.206   8.773   5.310
34389SOL     OW 5173   8.517   8.808   5.057
34389SOL    HW1 5174   8.437   8.779   5.105
34389SOL    HW2 5175   8.586   8.757   5.105
34390SOL     OW 5176   9.057   9.049   5.360
34390SOL    HW1 5177   9.064   9.090   5.273
34390SOL    HW2 5178   9.137   8.993   5.363
34391SOL     OW 5179   8.580   8.671   4.817
34391SOL    HW1 5180   8.523   8.693   4.891
34391SOL    HW2 5181   8.537   8.714   4.742
34392SOL     OW 5182   9.054   8.545   4.807
34392SOL    HW1 5183   9.060   8.603   4.885
34392SOL    HW2 5184   9.000   8.600   4.748
34393SOL     OW 5185   8.388   7.529   5.125
34393SOL    HW1 5186   8.414   7.515   5.032
34393SOL    HW2 5187   8.462   7.581   5.160
34394SOL     OW 5188   8.445   8.561   5.461
34394SOL    HW1 5189   8.354   8.589   5.480
34394SOL    HW2 5190   8.432   8.484   5.402
34395SOL     OW 5191   7.872   8.257   4.991
34395SOL    HW1 5192   7.946   8.254   5.055
34395SOL    HW2 5193   7.838   8.166   4.996
34396SOL     OW 5194   8.724   7.832   4.984
34396SOL    HW1 5195   8.745   7.910   5.040
34396SOL    HW2 5196   8.630   7.846   4.963
34397SOL     OW 5197   7.523   9.019   5.060
34397SOL    HW1 5198   7.518   9.115   5.062
34397SOL    HW2 5199   7.619   9.002   5.062
34398SOL     OW 5200   7.832   8.537   4.214
34398SOL    HW1 5201   7.820   8.612   4.156
34398SOL    HW2 5202   7.798   8.463   4.160
34399SOL     OW 5203   7.981   7.995   4.581
34399SOL    HW1 5204   8.040   8.042   4.520
34399SOL    HW2 5205   8.033   7.986   4.662
34400SOL     OW 5206   8.660   8.795   4.103
34400SOL    HW1 5207   8.707   8.871   4.141
34400SOL    HW2 5208   8.572   8.805   4.144
34401SOL     OW 5209   8.745   8.922   4.892
34401SOL    HW1 5210   8.804   8.917   4.970
34401SOL    HW2 5211   8.684   8.849   4.908
34402SOL     OW 5212   9.028   8.065   4.193
34402SOL    HW1 5213   8.975   8.112   4.259
34402SOL    HW2 5214   9.069   8.138   4.144
34403SOL     OW 5215   7.786   8.970   5.033
34403SOL    HW1 5216   7.779   8.928   4.944
34403SOL    HW2 5217   7.881   8.993   5.033
34404SOL     OW 5218   7.889   8.175   5.344
34404SOL    HW1 5219   7.947   8.215   5.276
34404SOL    HW2 5220   7.924   8.085   5.349
34405SOL     OW 5221   9.074   8.235   5.407
34405SOL    HW1 5222   8.983   8.270   5.402
34405SOL    HW2 5223   9.118   8.283   5.334
34406SOL     OW 5224   8.437   7.553   5.482
34406SOL    HW1 5225   8.491   7.629   5.457
34406SOL    HW2 5226   8.486   7.481   5.438
34407SOL     OW 5227   7.952   7.464   5.482
34407SOL    HW1 5228   7.910   7.412   5.411
34407SOL    HW2 5229   7.888   7.536   5.494
34408SOL     OW 5230   8.003   8.343   4.757
34408SOL    HW1 5231   8.058   8.421   4.774
34408SOL    HW2 5232   7.974   8.318   4.847
34409SOL     OW 5233   8.806   8.313   4.717
34409SOL    HW1 5234   8.716   8.279   4.703
34409SOL    HW2 5235   8.851   8.233   4.746
34410SOL     OW 5236   8.666   7.979   3.999
34410SOL    HW1 5237   8.670   7.897   4.052
34410SOL    HW2 5238   8.616   8.037   4.058
34411SOL     OW 5239   7.726   7.660   4.965
34411SOL    HW1 5240   7.689   7.689   5.051
34411SOL    HW2 5241   7.710   7.564   4.969
34412SOL     OW 5242   7.489   8.752   5.001
34412SOL    HW1 5243   7.514   8.694   5.075
34412SOL    HW2 5244   7.492   8.841   5.038
34413SOL     OW 5245   8.246   8.141   4.792
34413SOL    HW1 5246   8.270   8.063   4.739
34413SOL    HW2 5247   8.163   8.173   4.754
34414SOL     OW 5248   9.215   8.400   5.570
34414SOL    HW1 5249   9.165   8.335   5.517
34414SOL    HW2 5250   9.152   8.419   5.641
34415SOL     OW 5251   7.757   7.511   4.335
34415SOL    HW1 5252   7.726   7.601   4.353
34415SOL    HW2 5253   7.762   7.474   4.425
34416SOL     OW 5254   9.041   7.830   4.080
34416SOL    HW1 5255   9.068   7.774   4.154
34416SOL    HW2 5256   9.026   7.916   4.127
34417SOL     OW 5257   8.532   8.200   4.705
34417SOL    HW1 5258   8.497   8.227   4.792
34417SOL    HW2 5259   8.491   8.112   4.696
34418SOL     OW 5260   8.426   9.010   5.431
34418SOL    HW1 5261   8.415   9.065   5.351
34418SOL    HW2 5262   8.461   8.927   5.395
34419SOL     OW 5263   9.299   8.928   5.321
34419SOL    HW1 5264   9.312   8.961   5.231
34419SOL    HW2 5265   9.378   8.960   5.367
34420SOL     OW 5266   7.802   8.352   5.519
34420SOL    HW1 5267   7.882   8.376   5.567
34420SOL    HW2 5268   7.831   8.274   5.467
34421SOL     OW 5269   8.952   7.712   3.852
34421SOL    HW1 5270   8.885   7.650   3.885
34421SOL    HW2 5271   8.990   7.750   3.934
34422SOL     OW 5272   8.724   8.280   3.749
34422SOL    HW1 5273   8.766   8.193   3.761
34422SOL    HW2 5274   8.758   8.306   3.661
34423SOL     OW 5275   8.508   8.812   4.570
34423SOL    HW1 5276   8.522   8.735   4.511
34423SOL    HW2 5277   8.580   8.873   4.545
34424SOL     OW 5278   7.737   8.263   4.727
34424SOL    HW1 5279   7.831   8.284   4.719
34424SOL    HW2 5280   7.739   8.169   4.753
34425SOL     OW 5281   7.759   7.983   4.728
34425SOL    HW1 5282   7.736   7.890   4.710
34425SOL    HW2 5283   7.831   7.998   4.662
34426SOL     OW 5284   8.603   7.813   5.420
34426SOL    HW1 5285   8.556   7.867   5.486
34426SOL    HW2 5286   8.690   7.856   5.418
34427SOL     OW 5287   8.617   7.648   5.203
34427SOL    HW1 5288   8.614   7.711   5.278
34427SOL    HW2 5289   8.659   7.701   5.134
34428SOL     OW 5290   7.453   8.775   3.917
34428SOL    HW1 5291   7.360   8.792   3.888
34428SOL    HW2 5292   7.446   8.682   3.947
34429SOL     OW 5293   7.539   9.224   4.668
34429SOL    HW1 5294   7.510   9.140   4.624
34429SOL    HW2 5295   7.597   9.263   4.602
34430SOL     OW 5296   7.929   9.061   4.636
34430SOL    HW1 5297   8.002   9.063   4.700
34430SOL    HW2 5298   7.959   8.988   4.578
34431SOL     OW 5299   8.435   8.246   4.969
34431SOL    HW1 5300   8.476   8.198   5.043
34431SOL    HW2 5301   8.353   8.196   4.954
34432SOL     OW 5302   7.475   7.967   4.837
34432SOL    HW1 5303   7.554   7.953   4.783
34432SOL    HW2 5304   7.513   7.979   4.925
34433SOL     OW 5305   7.672   7.963   5.427
34433SOL    HW1 5306   7.738   7.924   5.366
34433SOL    HW2 5307   7.634   8.035   5.374
34434SOL     OW 5308   8.835   8.370   5.374
34434SOL    HW1 5309   8.859   8.465   5.370
34434SOL    HW2 5310   8.821   8.348   5.281
34435SOL     OW 5311   8.250   8.011   4.122
34435SOL    HW1 5312   8.260   7.947   4.049
34435SOL    HW2 5313   8.163   8.051   4.105
34436SOL     OW 5314   9.078   8.067   4.917
34436SOL    HW1 5315   9.048   8.019   4.995
34436SOL    HW2 5316   9.162   8.024   4.895
34437SOL     OW 5317   7.704   8.985   5.439
34437SOL    HW1 5318   7.687   9.053   5.506
34437SOL    HW2 5319   7.708   8.904   5.493
34438SOL     OW 5320   8.374   9.145   5.199
34438SOL    HW1 5321   8.351   9.127   5.108
34438SOL    HW2 5322   8.371   9.243   5.202
34439SOL     OW 5323   7.897   7.929   3.934
34439SOL    HW1 5324   7.951   8.000   3.900
34439SOL    HW2 5325   7.807   7.966   3.926
34440SOL     OW 5326   7.561   8.579   5.192
34440SOL    HW1 5327   7.572   8.524   5.273
34440SOL    HW2 5328   7.581   8.514   5.121
34441SOL     OW 5329   8.773   8.475   4.957
34441SOL    HW1 5330   8.790   8.428   4.874
34441SOL    HW2 5331   8.707   8.541   4.928
34442SOL     OW 5332   8.764   8.304   4.022
34442SOL    HW1 5333   8.683   8.273   4.066
34442SOL    HW2 5334   8.741   8.299   3.928
34443SOL     OW 5335   9.196   9.199   4.849
34443SOL    HW1 5336   9.274   9.216   4.793
34443SOL    HW2 5337   9.185   9.102   4.839
34444SOL     OW 5338   8.688   9.187   4.828
34444SOL    HW1 5339   8.774   9.213   4.795
34444SOL    HW2 5340   8.703   9.094   4.852
34445SOL     OW 5341   7.557   8.709   4.748
34445SOL    HW1 5342   7.524   8.720   4.840
34445SOL    HW2 5343   7.483   8.664   4.706
34446SOL     OW 5344   8.149   9.092   5.467
34446SOL    HW1 5345   8.112   9.181   5.457
34446SOL    HW2 5346   8.242   9.104   5.443
34447SOL     OW 5347   9.240   7.565   4.272
34447SOL    HW1 5348   9.233   7.571   4.176
34447SOL    HW2 5349   9.180   7.491   4.296
34448SOL     OW 5350   8.810   9.020   4.195
34448SOL    HW1 5351   8.874   9.044   4.125
34448SOL    HW2 5352   8.774   9.106   4.221
34449SOL     OW 5353   7.599   9.236   5.549
34449SOL    HW1 5354   7.556   9.165   5.602
34449SOL    HW2 5355   7.648   9.283   5.618
34450SOL     OW 5356   8.698   8.372   4.384
34450SOL    HW1 5357   8.779   8.320   4.400
34450SOL    HW2 5358   8.734   8.454   4.345
34451SOL     OW 5359   8.248   8.709   5.152
34451SOL    HW1 5360   8.222   8.758   5.233
34451SOL    HW2 5361   8.170   8.722   5.096
34452SOL     OW 5362   8.120   9.064   3.874
34452SOL    HW1 5363   8.138   9.082   3.780
34452SOL    HW2 5364   8.055   8.991   3.868
34453SOL     OW 5365   9.075   9.169   5.117
34453SOL    HW1 5366   9.113   9.187   5.029
34453SOL    HW2 5367   9.061   9.259   5.153
34454SOL     OW 5368   9.299   7.608   4.687
34454SOL    HW1 5369   9.309   7.514   4.665
34454SOL    HW2 5370   9.209   7.631   4.656
34455SOL     OW 5371   7.700   7.769   4.424
34455SOL    HW1 5372   7.613   7.812   4.411
34455SOL    HW2 5373   7.707   7.765   4.521
34456SOL     OW 5374   8.627   9.094   3.754
34456SOL    HW1 5375   8.633   8.997   3.765
34456SOL    HW2 5376   8.598   9.107   3.663
34457SOL     OW 5377   8.269   8.447   5.109
34457SOL    HW1 5378   8.316   8.443   5.024
34457SOL    HW2 5379   8.266   8.542   5.129
34458SOL     OW 5380   8.336   8.370   4.007
34458SOL    HW1 5381   8.409   8.414   3.958
34458SOL    HW2 5382   8.383   8.292   4.042
34459SOL     OW 5383   9.004   9.069   3.759
34459SOL    HW1 5384   8.911   9.095   3.753
34459SOL    HW2 5385   9.031   9.069   3.665
34460SOL     OW 5386   7.794   8.722   5.204
34460SOL    HW1 5387   7.785   8.793   5.138
34460SOL    HW2 5388   7.710   8.674   5.197
34461SOL     OW 5389   9.057   8.754   5.002
34461SOL    HW1 5390   9.089   8.726   5.088
34461SOL    HW2 5391   8.997   8.827   5.028
34462SOL     OW 5392   8.478   8.578   4.425
34462SOL    HW1 5393   8.425   8.518   4.480
34462SOL    HW2 5394   8.549   8.520   4.395
34463SOL     OW 5395   8.479   7.674   4.709
34463SOL    HW1 5396   8.468   7.630   4.623
34463SOL    HW2 5397   8.479   7.598   4.770
34464SOL     OW 5398   8.059   8.938   4.221
34464SOL    HW1 5399   8.112   8.911   4.145
34464SOL    HW2 5400   7.986   8.985   4.181
34465SOL     OW 5401   9.166   7.813   5.102
34465SOL    HW1 5402   9.227   7.889   5.100
34465SOL    HW2 5403   9.216   7.747   5.049
34466SOL     OW 5404   7.705   8.834   4.000
34466SOL    HW1 5405   7.612   8.805   3.991
34466SOL    HW2 5406   7.708   8.859   4.095
34467SOL     OW 5407   7.574   8.453   5.424
34467SOL    HW1 5408   7.502   8.439   5.489
34467SOL    HW2 5409   7.654   8.425   5.474
34468SOL     OW 5410   8.122   7.612   5.222
34468SOL    HW1 5411   8.208   7.608   5.178
34468SOL    HW2 5412   8.140   7.668   5.299
34469SOL     OW 5413   7.545   7.807   3.771
34469SOL    HW1 5414   7.453   7.796   3.747
34469SOL    HW2 5415   7.575   7.872   3.704
34470SOL     OW 5416   8.907   8.302   5.115
34470SOL    HW1 5417   8.860   8.364   5.055
34470SOL    HW2 5418   8.999   8.330   5.103
34471SOL     OW 5419   7.494   7.612   4.023
34471SOL    HW1 5420   7.495   7.698   3.980
34471SOL    HW2 5421   7.579   7.574   3.992
34472SOL     OW 5422   8.634   8.819   3.830
34472SOL    HW1 5423   8.542   8.799   3.852
34472SOL    HW2 5424   8.674   8.818   3.920
34473SOL     OW 5425   8.075   8.258   5.160
34473SOL    HW1 5426   8.132   8.336   5.156
34473SOL    HW2 5427   8.143   8.188   5.163
34474SOL     OW 5428   8.949   9.238   4.693
34474SOL    HW1 5429   8.991   9.250   4.607
34474SOL    HW2 5430   9.023   9.206   4.747
34475SOL     OW 5431   8.174   7.987   5.424
34475SOL    HW1 5432   8.221   8.044   5.486
34475SOL    HW2 5433   8.192   7.897   5.455
34476SOL     OW 5434   8.911   8.630   5.348
34476SOL    HW1 5435   8.902   8.635   5.446
34476SOL    HW2 5436   9.006   8.649   5.337
34477SOL     OW 5437   7.820   9.178   5.277
34477SOL    HW1 5438   7.731   9.219   5.274
34477SOL    HW2 5439   7.798   9.093   5.319
34478SOL     OW 5440   9.160   8.333   4.957
34478SOL    HW1 5441   9.135   8.245   4.923
34478SOL    HW2 5442   9.120   8.394   4.891
34479SOL     OW 5443   8.644   7.781   4.198
34479SOL    HW1 5444   8.709   7.708   4.195
34479SOL    HW2 5445   8.679   7.834   4.272
34480SOL     OW 5446   8.043   8.208   4.356
34480SOL    HW1 5447   8.028   8.285   4.413
34480SOL    HW2 5448   7.954   8.185   4.326
34481SOL     OW 5449   9.219   7.827   5.364
34481SOL    HW1 5450   9.192   7.832   5.270
34481SOL    HW2 5451   9.144   7.779   5.402
34482SOL     OW 5452   9.189   8.389   5.223
34482SOL    HW1 5453   9.197   8.485   5.215
34482SOL    HW2 5454   9.209   8.359   5.132
34483SOL     OW 5455   8.355   8.809   3.753
34483SOL    HW1 5456   8.308   8.817   3.838
34483SOL    HW2 5457   8.336   8.895   3.711
34484SOL     OW 5458   8.133   9.265   4.612
34484SOL    HW1 5459   8.152   9.358   4.630
34484SOL    HW2 5460   8.219   9.223   4.626
34485SOL     OW 5461   8.318   8.393   4.566
34485SOL    HW1 5462   8.368   8.322   4.608
34485SOL    HW2 5463   8.293   8.448   4.641
34486SOL     OW 5464   8.526   8.447   3.822
34486SOL    HW1 5465   8.513   8.506   3.746
34486SOL    HW2 5466   8.595   8.387   3.788
34487SOL     OW 5467   9.314   9.020   4.571
34487SOL    HW1 5468   9.222   9.004   4.545
34487SOL    HW2 5469   9.336   8.940   4.620
34488SOL     OW 5470   7.686   8.767   5.588
34488SOL    HW1 5471   7.610   8.710   5.576
34488SOL    HW2 5472   7.684   8.780   5.685
34489SOL     OW 5473   7.530   8.711   4.389
34489SOL    HW1 5474   7.508   8.652   4.463
34489SOL    HW2 5475   7.612   8.674   4.358
34490SOL     OW 5476   8.122   8.852   5.343
34490SOL    HW1 5477   8.046   8.803   5.380
34490SOL    HW2 5478   8.118   8.936   5.393
34491SOL     OW 5479   9.283   7.615   4.953
34491SOL    HW1 5480   9.285   7.520   4.967
34491SOL    HW2 5481   9.287   7.621   4.855
34492SOL     OW 5482   7.884   7.884   4.263
34492SOL    HW1 5483   7.927   7.814   4.212
34492SOL    HW2 5484   7.832   7.836   4.330
34493SOL     OW 5485   9.151   8.945   4.818
34493SOL    HW1 5486   9.071   8.915   4.771
34493SOL    HW2 5487   9.155   8.880   4.891
34494SOL     OW 5488   7.780   7.976   5.008
34494SOL    HW1 5489   7.872   7.956   5.036
34494SOL    HW2 5490   7.785   7.948   4.915
34495SOL     OW 5491   8.268   9.056   4.394
34495SOL    HW1 5492   8.256   9.114   4.318
34495SOL    HW2 5493   8.184   9.007   4.400
34496SOL     OW 5494   8.880   7.690   4.825
34496SOL    HW1 5495   8.909   7.611   4.873
34496SOL    HW2 5496   8.828   7.738   4.893
34497SOL     OW 5497   8.468   7.452   4.868
34497SOL    HW1 5498   8.410   7.376   4.852
34497SOL    HW2 5499   8.558   7.411   4.865
34498SOL     OW 5500   8.247   8.785   4.028
34498SOL    HW1 5501   8.198   8.705   4.044
34498SOL    HW2 5502   8.308   8.789   4.104
34499SOL     OW 5503   8.050   9.012   4.982
34499SOL    HW1 5504   8.052   9.094   5.036
34499SOL    HW2 5505   8.146   9.001   4.967
34500SOL     OW 5506   8.765   7.471   3.920
34500SOL    HW1 5507   8.772   7.412   3.844
34500SOL    HW2 5508   8.674   7.448   3.950
34501SOL     OW 5509   8.752   7.926   4.404
34501SOL    HW1 5510   8.691   8.001   4.421
34501SOL    HW2 5511   8.740   7.872   4.485
34502SOL     OW 5512   9.055   7.653   4.592
34502SOL    HW1 5513   8.981   7.664   4.654
34502SOL    HW2 5514   9.049   7.734   4.538
34503SOL     OW 5515   7.483   8.518   4.028
34503SOL    HW1 5516   7.578   8.507   4.013
34503SOL    HW2 5517   7.457   8.425   4.046
34504SOL     OW 5518   8.327   9.089   4.054
34504SOL    HW1 5519   8.255   9.079   3.990
34504SOL    HW2 5520   8.304   9.172   4.101
34505SOL     OW 5521   7.684   8.078   5.714
34505SOL    HW1 5522   7.593   8.070   5.745
34505SOL    HW2 5523   7.679   8.058   5.619
34506SOL     OW 5524   7.690   7.718   6.582
34506SOL    HW1 5525   7.705   7.704   6.678
34506SOL    HW2 5526   7.600   7.683   6.572
34507SOL     OW 5527   7.449   7.846   6.203
34507SOL    HW1 5528   7.374   7.873   6.259
34507SOL    HW2 5529   7.412   7.767   6.161
34508SOL     OW 5530   8.020   8.732   6.779
34508SOL    HW1 5531   7.932   8.730   6.739
34508SOL    HW2 5532   8.028   8.824   6.809
34509SOL     OW 5533   8.996   8.977   6.302
34509SOL    HW1 5534   8.962   8.950   6.390
34509SOL    HW2 5535   8.920   8.969   6.243
34510SOL     OW 5536   8.581   8.128   6.297
34510SOL    HW1 5537   8.606   8.218   6.269
34510SOL    HW2 5538   8.543   8.144   6.384
34511SOL     OW 5539   9.226   8.060   5.819
34511SOL    HW1 5540   9.204   8.057   5.723
34511SOL    HW2 5541   9.180   7.981   5.851
34512SOL     OW 5542   8.211   8.610   6.623
34512SOL    HW1 5543   8.141   8.648   6.679
34512SOL    HW2 5544   8.233   8.686   6.567
34513SOL     OW 5545   8.334   8.193   7.386
34513SOL    HW1 5546   8.308   8.256   7.454
34513SOL    HW2 5547   8.357   8.249   7.310
34514SOL     OW 5548   8.141   8.477   6.234
34514SOL    HW1 5549   8.197   8.449   6.309
34514SOL    HW2 5550   8.068   8.525   6.278
34515SOL     OW 5551   8.138   8.597   7.392
34515SOL    HW1 5552   8.181   8.682   7.411
34515SOL    HW2 5553   8.050   8.624   7.358
34516SOL     OW 5554   7.760   8.880   6.665
34516SOL    HW1 5555   7.693   8.825   6.621
34516SOL    HW2 5556   7.806   8.925   6.592
34517SOL     OW 5557   8.922   8.954   6.962
34517SOL    HW1 5558   8.975   9.035   6.977
34517SOL    HW2 5559   8.852   8.964   7.028
34518SOL     OW 5560   7.872   7.852   7.096
34518SOL    HW1 5561   7.951   7.796   7.098
34518SOL    HW2 5562   7.799   7.788   7.083
34519SOL     OW 5563   9.078   7.903   6.332
34519SOL    HW1 5564   9.011   7.927   6.267
34519SOL    HW2 5565   9.055   7.961   6.406
34520SOL     OW 5566   7.670   9.171   6.065
34520SOL    HW1 5567   7.700   9.249   6.116
34520SOL    HW2 5568   7.733   9.170   5.991
34521SOL     OW 5569   8.570   8.797   7.246
34521SOL    HW1 5570   8.615   8.794   7.331
34521SOL    HW2 5571   8.527   8.709   7.246
34522SOL     OW 5572   7.697   8.882   6.115
34522SOL    HW1 5573   7.691   8.979   6.124
34522SOL    HW2 5574   7.628   8.851   6.176
34523SOL     OW 5575   7.723   8.532   6.490
34523SOL    HW1 5576   7.715   8.460   6.553
34523SOL    HW2 5577   7.664   8.600   6.529
34524SOL     OW 5578   8.040   9.247   6.983
34524SOL    HW1 5579   7.972   9.220   7.047
34524SOL    HW2 5580   8.071   9.333   7.020
34525SOL     OW 5581   8.017   8.437   5.705
34525SOL    HW1 5582   8.064   8.489   5.637
34525SOL    HW2 5583   8.059   8.472   5.786
34526SOL     OW 5584   9.055   7.554   7.080
34526SOL    HW1 5585   9.046   7.633   7.025
34526SOL    HW2 5586   9.067   7.592   7.168
34527SOL     OW 5587   7.578   8.086   6.147
34527SOL    HW1 5588   7.534   8.000   6.159
34527SOL    HW2 5589   7.559   8.132   6.231
34528SOL     OW 5590   9.294   9.183   5.935
34528SOL    HW1 5591   9.365   9.165   5.999
34528SOL    HW2 5592   9.312   9.276   5.912
34529SOL     OW 5593   7.502   9.038   5.701
34529SOL    HW1 5594   7.486   8.945   5.724
34529SOL    HW2 5595   7.470   9.085   5.779
34530SOL     OW 5596   9.135   8.363   6.244
34530SOL    HW1 5597   9.205   8.322   6.191
34530SOL    HW2 5598   9.099   8.428   6.182
34531SOL     OW 5599   9.089   8.569   6.036
34531SOL    HW1 5600   9.180   8.567   6.001
34531SOL    HW2 5601   9.095   8.640   6.102
34532SOL     OW 5602   7.564   8.183   7.171
34532SOL    HW1 5603   7.652   8.222   7.178
34532SOL    HW2 5604   7.507   8.261   7.185
34533SOL     OW 5605   8.035   8.860   6.339
34533SOL    HW1 5606   7.999   8.769   6.349
34533SOL    HW2 5607   8.028   8.871   6.242
34534SOL     OW 5608   8.740   8.679   7.009
34534SOL    HW1 5609   8.770   8.603   6.957
34534SOL    HW2 5610   8.787   8.665   7.093
34535SOL     OW 5611   8.277   7.446   6.098
34535SOL    HW1 5612   8.314   7.535   6.081
34535SOL    HW2 5613   8.182   7.463   6.088
34536SOL     OW 5614   7.621   8.436   6.851
34536SOL    HW1 5615   7.711   8.404   6.836
34536SOL    HW2 5616   7.568   8.373   6.799
34537SOL     OW 5617   8.996   8.429   5.784
34537SOL    HW1 5618   8.916   8.381   5.814
34537SOL    HW2 5619   9.032   8.461   5.868
34538SOL     OW 5620   8.614   9.262   7.196
34538SOL    HW1 5621   8.622   9.322   7.121
34538SOL    HW2 5622   8.644   9.178   7.157
34539SOL     OW 5623   7.780   7.675   7.388
34539SOL    HW1 5624   7.838   7.747   7.414
34539SOL    HW2 5625   7.694   7.709   7.418
34540SOL     OW 5626   8.917   8.871   6.546
34540SOL    HW1 5627   8.854   8.892   6.618
34540SOL    HW2 5628   8.884   8.784   6.516
34541SOL     OW 5629   9.126   9.177   6.195
34541SOL    HW1 5630   9.111   9.144   6.105
34541SOL    HW2 5631   9.081   9.107   6.247
34542SOL     OW 5632   8.038   8.160   5.843
34542SOL    HW1 5633   8.036   8.249   5.805
34542SOL    HW2 5634   7.969   8.165   5.913
34543SOL     OW 5635   8.715   7.773   6.485
34543SOL    HW1 5636   8.625   7.747   6.513
34543SOL    HW2 5637   8.769   7.741   6.560
34544SOL     OW 5638   9.030   9.088   5.890
34544SOL    HW1 5639   9.124   9.110   5.897
34544SOL    HW2 5640   9.019   9.086   5.792
34545SOL     OW 5641   8.253   8.069   7.041
34545SOL    HW1 5642   8.234   8.033   7.130
34545SOL    HW2 5643   8.201   8.009   6.984
34546SOL     OW 5644   8.844   7.931   7.252
34546SOL    HW1 5645   8.845   7.989   7.330
34546SOL    HW2 5646   8.903   7.858   7.279
34547SOL     OW 5647   8.411   8.332   7.164
34547SOL    HW1 5648   8.451   8.252   7.125
34547SOL    HW2 5649   8.365   8.370   7.087
34548SOL     OW 5650   8.420   7.835   6.814
34548SOL    HW1 5651   8.332   7.871   6.831
34548SOL    HW2 5652   8.411   7.792   6.728
34549SOL     OW 5653   8.494   8.133   5.994
34549SOL    HW1 5654   8.502   8.149   6.089
34549SOL    HW2 5655   8.406   8.089   5.988
34550SOL     OW 5656   7.553   8.231   6.371
34550SOL    HW1 5657   7.592   8.289   6.438
34550SOL    HW2 5658   7.468   8.274   6.349
34551SOL     OW 5659   7.554   9.317   7.154
34551SOL    HW1 5660   7.567   9.292   7.248
34551SOL    HW2 5661   7.467   9.280   7.136
34552SOL     OW 5662   8.325   7.817   5.789
34552SOL    HW1 5663   8.373   7.869   5.722
34552SOL    HW2 5664   8.319   7.731   5.745
34553SOL     OW 5665   9.169   8.037   7.430
34553SOL    HW1 5666   9.131   8.114   7.382
34553SOL    HW2 5667   9.198   7.982   7.356
34554SOL     OW 5668   8.808   8.602   6.144
34554SOL    HW1 5669   8.889   8.589   6.092
34554SOL    HW2 5670   8.762   8.670   6.091
34555SOL     OW 5671   7.993   7.632   6.475
34555SOL    HW1 5672   8.007   7.655   6.569
34555SOL    HW2 5673   7.992   7.719   6.432
34556SOL     OW 5674   8.433   8.889   6.081
34556SOL    HW1 5675   8.391   8.949   6.016
34556SOL    HW2 5676   8.437   8.944   6.160
34557SOL     OW 5677   7.791   9.258   6.441
34557SOL    HW1 5678   7.834   9.171   6.452
34557SOL    HW2 5679   7.865   9.318   6.459
34558SOL     OW 5680   9.261   8.513   6.461
34558SOL    HW1 5681   9.213   8.484   6.382
34558SOL    HW2 5682   9.194   8.499   6.530
34559SOL     OW 5683   8.674   9.015   7.088
34559SOL    HW1 5684   8.647   8.946   7.151
34559SOL    HW2 5685   8.631   8.985   7.008
34560SOL     OW 5686   7.759   8.400   5.845
34560SOL    HW1 5687   7.841   8.406   5.795
34560SOL    HW2 5688   7.721   8.317   5.814
34561SOL     OW 5689   8.922   8.203   6.304
34561SOL    HW1 5690   8.919   8.169   6.395
34561SOL    HW2 5691   9.004   8.256   6.305
34562SOL     OW 5692   7.908   8.717   7.306
34562SOL    HW1 5693   7.866   8.723   7.217
34562SOL    HW2 5694   7.828   8.720   7.362
34563SOL     OW 5695   8.541   9.222   5.828
34563SOL    HW1 5696   8.472   9.165   5.867
34563SOL    HW2 5697   8.544   9.192   5.736
34564SOL     OW 5698   7.620   7.734   7.082
34564SOL    HW1 5699   7.547   7.794   7.104
34564SOL    HW2 5700   7.600   7.657   7.137
34565SOL     OW 5701   9.070   8.811   5.680
34565SOL    HW1 5702   9.025   8.895   5.658
34565SOL    HW2 5703   9.010   8.745   5.641
34566SOL     OW 5704   7.907   9.184   5.909
34566SOL    HW1 5705   7.955   9.239   5.974
34566SOL    HW2 5706   7.978   9.162   5.847
34567SOL     OW 5707   8.843   7.557   6.029
34567SOL    HW1 5708   8.837   7.515   5.941
34567SOL    HW2 5709   8.937   7.575   6.038
34568SOL     OW 5710   7.691   9.238   6.812
34568SOL    HW1 5711   7.750   9.170   6.848
34568SOL    HW2 5712   7.677   9.207   6.721
34569SOL     OW 5713   8.406   9.151   6.475
34569SOL    HW1 5714   8.490   9.105   6.485
34569SOL    HW2 5715   8.359   9.094   6.411
34570SOL     OW 5716   7.843   8.140   6.049
34570SOL    HW1 5717   7.865   8.049   6.076
34570SOL    HW2 5718   7.747   8.142   6.068
34571SOL     OW 5719   8.988   7.710   7.313
34571SOL    HW1 5720   8.987   7.709   7.412
34571SOL    HW2 5721   8.925   7.640   7.294
34572SOL     OW 5722   8.092   7.570   5.678
34572SOL    HW1 5723   8.163   7.507   5.689
34572SOL    HW2 5724   8.036   7.526   5.610
34573SOL     OW 5725   8.223   7.717   7.323
34573SOL    HW1 5726   8.300   7.658   7.334
34573SOL    HW2 5727   8.168   7.693   7.399
34574SOL     OW 5728   8.340   8.997   6.791
34574SOL    HW1 5729   8.334   8.967   6.699
34574SOL    HW2 5730   8.405   8.937   6.830
34575SOL     OW 5731   8.788   8.042   7.008
34575SOL    HW1 5732   8.823   8.010   7.093
34575SOL    HW2 5733   8.838   8.125   6.994
34576SOL     OW 5734   8.253   8.860   6.504
34576SOL    HW1 5735   8.339   8.849   6.459
34576SOL    HW2 5736   8.189   8.858   6.431
34577SOL     OW 5737   8.390   7.976   6.494
34577SOL    HW1 5738   8.364   7.965   6.400
34577SOL    HW2 5739   8.421   7.887   6.515
34578SOL     OW 5740   8.006   7.496   6.093
34578SOL    HW1 5741   7.924   7.501   6.144
34578SOL    HW2 5742   7.997   7.574   6.033
34579SOL     OW 5743   8.892   8.621   5.608
34579SOL    HW1 5744   8.921   8.550   5.669
34579SOL    HW2 5745   8.804   8.643   5.641
34580SOL     OW 5746   7.723   7.491   5.773
34580SOL    HW1 5747   7.776   7.561   5.732
34580SOL    HW2 5748   7.792   7.434   5.812
34581SOL     OW 5749   8.376   7.703   6.063
34581SOL    HW1 5750   8.359   7.751   5.980
34581SOL    HW2 5751   8.473   7.716   6.071
34582SOL     OW 5752   8.538   8.125   7.051
34582SOL    HW1 5753   8.484   8.044   7.052
34582SOL    HW2 5754   8.629   8.093   7.040
34583SOL     OW 5755   8.678   9.031   6.377
34583SOL    HW1 5756   8.676   9.087   6.297
34583SOL    HW2 5757   8.758   9.061   6.421
34584SOL     OW 5758   7.925   8.613   6.327
34584SOL    HW1 5759   7.851   8.581   6.382
34584SOL    HW2 5760   7.890   8.592   6.237
34585SOL     OW 5761   8.704   9.254   6.184
34585SOL    HW1 5762   8.749   9.322   6.130
34585SOL    HW2 5763   8.658   9.309   6.250
34586SOL     OW 5764   8.505   7.981   5.611
34586SOL    HW1 5765   8.455   8.062   5.587
34586SOL    HW2 5766   8.575   8.014   5.668
34587SOL     OW 5767   7.516   7.998   6.985
34587SOL    HW1 5768   7.610   7.983   6.964
34587SOL    HW2 5769   7.521   8.078   7.042
34588SOL     OW 5770   8.022   7.671   6.746
34588SOL    HW1 5771   8.066   7.609   6.805
34588SOL    HW2 5772   7.931   7.670   6.781
34589SOL     OW 5773   8.330   7.909   6.244
34589SOL    HW1 5774   8.280   7.960   6.178
34589SOL    HW2 5775   8.348   7.826   6.196
34590SOL     OW 5776   8.462   7.516   6.359
34590SOL    HW1 5777   8.425   7.497   6.272
34590SOL    HW2 5778   8.447   7.434   6.409
34591SOL     OW 5779   8.857   8.620   6.469
34591SOL    HW1 5780   8.806   8.541   6.493
34591SOL    HW2 5781   8.857   8.616   6.373
34592SOL     OW 5782   8.917   8.034   6.565
34592SOL    HW1 5783   8.866   7.954   6.578
34592SOL    HW2 5784   8.983   8.030   6.637
34593SOL     OW 5785   9.292   8.274   5.980
34593SOL    HW1 5786   9.346   8.219   6.040
34593SOL    HW2 5787   9.274   8.210   5.908
34594SOL     OW 5788   7.942   8.869   5.716
34594SOL    HW1 5789   7.860   8.855   5.767
34594SOL    HW2 5790   7.926   8.819   5.635
34595SOL     OW 5791   9.126   8.739   6.246
34595SOL    HW1 5792   9.223   8.748   6.242
34595SOL    HW2 5793   9.095   8.827   6.273
34596SOL     OW 5794   8.848   8.039   5.646
34596SOL    HW1 5795   8.802   8.015   5.729
34596SOL    HW2 5796   8.934   7.998   5.661
34597SOL     OW 5797   7.976   7.683   5.901
34597SOL    HW1 5798   8.018   7.651   5.819
34597SOL    HW2 5799   7.942   7.770   5.871
34598SOL     OW 5800   9.182   8.677   7.157
34598SOL    HW1 5801   9.268   8.638   7.176
34598SOL    HW2 5802   9.201   8.771   7.173
34599SOL     OW 5803   8.518   8.818   6.925
34599SOL    HW1 5804   8.444   8.776   6.972
34599SOL    HW2 5805   8.594   8.768   6.962
34600SOL     OW 5806   9.062   9.052   7.217
34600SOL    HW1 5807   9.072   9.098   7.132
34600SOL    HW2 5808   9.144   9.000   7.222
34601SOL     OW 5809   8.575   8.684   6.683
34601SOL    HW1 5810   8.507   8.706   6.748
34601SOL    HW2 5811   8.539   8.722   6.601
34602SOL     OW 5812   9.046   8.547   6.667
34602SOL    HW1 5813   9.058   8.611   6.740
34602SOL    HW2 5814   8.987   8.598   6.608
34603SOL     OW 5815   8.364   7.546   6.988
34603SOL    HW1 5816   8.389   7.527   6.896
34603SOL    HW2 5817   8.445   7.586   7.024
34604SOL     OW 5818   8.445   8.560   7.324
34604SOL    HW1 5819   8.354   8.586   7.347
34604SOL    HW2 5820   8.432   8.484   7.264
34605SOL     OW 5821   8.167   8.519   5.928
34605SOL    HW1 5822   8.148   8.496   6.020
34605SOL    HW2 5823   8.239   8.457   5.905
34606SOL     OW 5824   7.870   8.255   6.845
34606SOL    HW1 5825   7.940   8.252   6.914
34606SOL    HW2 5826   7.823   8.171   6.857
34607SOL     OW 5827   8.726   7.836   6.848
34607SOL    HW1 5828   8.747   7.914   6.904
34607SOL    HW2 5829   8.633   7.850   6.824
34608SOL     OW 5830   7.527   9.024   6.937
34608SOL    HW1 5831   7.525   9.111   6.895
34608SOL    HW2 5832   7.622   9.001   6.929
34609SOL     OW 5833   7.817   8.538   6.090
34609SOL    HW1 5834   7.820   8.606   6.022
34609SOL    HW2 5835   7.791   8.461   6.038
34610SOL     OW 5836   7.992   7.992   6.430
34610SOL    HW1 5837   8.021   8.055   6.360
34610SOL    HW2 5838   8.054   8.014   6.502
34611SOL     OW 5839   8.675   8.794   5.972
34611SOL    HW1 5840   8.718   8.870   6.015
34611SOL    HW2 5841   8.583   8.805   6.002
34612SOL     OW 5842   8.748   8.918   6.754
34612SOL    HW1 5843   8.807   8.909   6.832
34612SOL    HW2 5844   8.684   8.847   6.768
34613SOL     OW 5845   9.037   8.062   6.064
34613SOL    HW1 5846   8.984   8.116   6.123
34613SOL    HW2 5847   9.066   8.125   5.997
34614SOL     OW 5848   7.788   8.964   6.906
34614SOL    HW1 5849   7.772   8.927   6.815
34614SOL    HW2 5850   7.884   8.979   6.900
34615SOL     OW 5851   7.889   8.175   7.209
34615SOL    HW1 5852   7.946   8.218   7.143
34615SOL    HW2 5853   7.922   8.084   7.206
34616SOL     OW 5854   9.079   8.233   7.276
34616SOL    HW1 5855   8.988   8.265   7.274
34616SOL    HW2 5856   9.118   8.276   7.197
34617SOL     OW 5857   8.445   7.560   7.355
34617SOL    HW1 5858   8.502   7.634   7.330
34617SOL    HW2 5859   8.494   7.486   7.316
34618SOL     OW 5860   7.951   7.455   7.341
34618SOL    HW1 5861   7.904   7.400   7.276
34618SOL    HW2 5862   7.889   7.530   7.349
34619SOL     OW 5863   8.071   8.333   6.654
34619SOL    HW1 5864   8.075   8.429   6.644
34619SOL    HW2 5865   7.994   8.321   6.712
34620SOL     OW 5866   8.799   8.305   6.607
34620SOL    HW1 5867   8.715   8.272   6.573
34620SOL    HW2 5868   8.852   8.224   6.609
34621SOL     OW 5869   8.679   7.964   5.856
34621SOL    HW1 5870   8.678   7.888   5.916
34621SOL    HW2 5871   8.616   8.024   5.901
34622SOL     OW 5872   7.756   7.652   6.837
34622SOL    HW1 5873   7.707   7.679   6.917
34622SOL    HW2 5874   7.732   7.557   6.831
34623SOL     OW 5875   7.479   8.756   6.869
34623SOL    HW1 5876   7.502   8.697   6.943
34623SOL    HW2 5877   7.489   8.845   6.907
34624SOL     OW 5878   8.162   8.081   6.628
34624SOL    HW1 5879   8.249   8.072   6.584
34624SOL    HW2 5880   8.143   8.177   6.625
34625SOL     OW 5881   9.218   8.404   7.439
34625SOL    HW1 5882   9.170   8.346   7.377
34625SOL    HW2 5883   9.151   8.422   7.506
34626SOL     OW 5884   7.745   7.510   6.189
34626SOL    HW1 5885   7.721   7.605   6.200
34626SOL    HW2 5886   7.731   7.478   6.279
34627SOL     OW 5887   9.037   7.829   5.930
34627SOL    HW1 5888   9.073   7.759   5.988
34627SOL    HW2 5889   9.036   7.907   5.990
34628SOL     OW 5890   8.507   8.207   6.558
34628SOL    HW1 5891   8.486   8.222   6.652
34628SOL    HW2 5892   8.474   8.116   6.546
34629SOL     OW 5893   8.423   9.020   7.291
34629SOL    HW1 5894   8.417   9.069   7.206
34629SOL    HW2 5895   8.447   8.931   7.260
34630SOL     OW 5896   9.302   8.934   7.190
34630SOL    HW1 5897   9.322   8.962   7.099
34630SOL    HW2 5898   9.377   8.970   7.241
34631SOL     OW 5899   7.803   8.345   7.386
34631SOL    HW1 5900   7.885   8.361   7.435
34631SOL    HW2 5901   7.829   8.273   7.324
34632SOL     OW 5902   8.956   7.705   5.704
34632SOL    HW1 5903   8.885   7.649   5.738
34632SOL    HW2 5904   8.991   7.748   5.784
34633SOL     OW 5905   8.731   8.288   5.609
34633SOL    HW1 5906   8.770   8.200   5.619
34633SOL    HW2 5907   8.765   8.315   5.521
34634SOL     OW 5908   8.513   8.814   6.432
34634SOL    HW1 5909   8.531   8.737   6.374
34634SOL    HW2 5910   8.581   8.880   6.406
34635SOL     OW 5911   7.729   8.270   6.594
34635SOL    HW1 5912   7.812   8.276   6.545
34635SOL    HW2 5913   7.725   8.175   6.611
34636SOL     OW 5914   7.772   7.987   6.585
34636SOL    HW1 5915   7.746   7.895   6.570
34636SOL    HW2 5916   7.839   8.000   6.514
34637SOL     OW 5917   8.605   7.810   7.288
34637SOL    HW1 5918   8.558   7.865   7.353
34637SOL    HW2 5919   8.690   7.857   7.281
34638SOL     OW 5920   8.616   7.644   7.075
34638SOL    HW1 5921   8.612   7.711   7.147
34638SOL    HW2 5922   8.656   7.695   7.003
34639SOL     OW 5923   7.451   8.773   5.775
34639SOL    HW1 5924   7.358   8.784   5.746
34639SOL    HW2 5925   7.450   8.681   5.810
34640SOL     OW 5926   7.548   9.225   6.534
34640SOL    HW1 5927   7.519   9.156   6.471
34640SOL    HW2 5928   7.637   9.247   6.499
34641SOL     OW 5929   7.929   9.033   6.516
34641SOL    HW1 5930   7.999   9.100   6.524
34641SOL    HW2 5931   7.971   8.968   6.456
34642SOL     OW 5932   8.422   8.214   6.818
34642SOL    HW1 5933   8.475   8.187   6.895
34642SOL    HW2 5934   8.333   8.192   6.849
34643SOL     OW 5935   7.477   7.969   6.700
34643SOL    HW1 5936   7.556   7.969   6.645
34643SOL    HW2 5937   7.514   7.984   6.789
34644SOL     OW 5938   7.672   7.959   7.306
34644SOL    HW1 5939   7.728   7.924   7.235
34644SOL    HW2 5940   7.622   8.029   7.260
34645SOL     OW 5941   8.840   8.361   7.242
34645SOL    HW1 5942   8.856   8.457   7.241
34645SOL    HW2 5943   8.835   8.340   7.147
34646SOL     OW 5944   8.253   8.028   5.950
34646SOL    HW1 5945   8.263   7.954   5.888
34646SOL    HW2 5946   8.180   8.079   5.910
34647SOL     OW 5947   9.083   8.067   6.793
34647SOL    HW1 5948   9.056   8.002   6.859
34647SOL    HW2 5949   9.167   8.031   6.760
34648SOL     OW 5950   7.700   8.991   7.299
34648SOL    HW1 5951   7.686   9.047   7.376
34648SOL    HW2 5952   7.709   8.903   7.340
34649SOL     OW 5953   8.130   7.925   6.847
34649SOL    HW1 5954   8.085   7.848   6.810
34649SOL    HW2 5955   8.131   7.988   6.772
34650SOL     OW 5956   8.378   9.135   7.054
34650SOL    HW1 5957   8.358   9.101   6.966
34650SOL    HW2 5958   8.372   9.232   7.041
34651SOL     OW 5959   7.891   7.917   5.789
34651SOL    HW1 5960   7.959   7.986   5.787
34651SOL    HW2 5961   7.810   7.970   5.775
34652SOL     OW 5962   7.553   8.583   7.060
34652SOL    HW1 5963   7.568   8.528   7.140
34652SOL    HW2 5964   7.574   8.520   6.987
34653SOL     OW 5965   8.771   8.480   6.823
34653SOL    HW1 5966   8.788   8.428   6.742
34653SOL    HW2 5967   8.705   8.543   6.791
34654SOL     OW 5968   8.765   8.304   5.879
34654SOL    HW1 5969   8.683   8.274   5.920
34654SOL    HW2 5970   8.743   8.306   5.784
34655SOL     OW 5971   9.198   9.189   6.713
34655SOL    HW1 5972   9.271   9.215   6.654
34655SOL    HW2 5973   9.195   9.092   6.697
34656SOL     OW 5974   8.690   9.174   6.695
34656SOL    HW1 5975   8.776   9.195   6.656
34656SOL    HW2 5976   8.699   9.078   6.714
34657SOL     OW 5977   7.556   8.707   6.616
34657SOL    HW1 5978   7.516   8.722   6.704
34657SOL    HW2 5979   7.484   8.660   6.569
34658SOL     OW 5980   8.146   9.084   7.333
34658SOL    HW1 5981   8.107   9.167   7.304
34658SOL    HW2 5982   8.238   9.091   7.304
34659SOL     OW 5983   9.125   7.596   6.084
34659SOL    HW1 5984   9.202   7.584   6.026
34659SOL    HW2 5985   9.125   7.514   6.136
34660SOL     OW 5986   8.817   9.029   6.072
34660SOL    HW1 5987   8.869   9.050   5.993
34660SOL    HW2 5988   8.770   9.113   6.089
34661SOL     OW 5989   7.599   9.259   7.418
34661SOL    HW1 5990   7.561   9.180   7.462
34661SOL    HW2 5991   7.647   9.299   7.491
34662SOL     OW 5992   8.695   8.368   6.253
34662SOL    HW1 5993   8.776   8.317   6.270
34662SOL    HW2 5994   8.732   8.446   6.206
34663SOL     OW 5995   8.262   8.708   7.014
34663SOL    HW1 5996   8.230   8.753   7.095
34663SOL    HW2 5997   8.194   8.734   6.950
34664SOL     OW 5998   8.117   9.063   5.749
34664SOL    HW1 5999   8.133   9.078   5.654
34664SOL    HW2 6000   8.057   8.984   5.744
34665SOL     OW 6001   9.076   9.173   6.977
34665SOL    HW1 6002   9.112   9.184   6.887
34665SOL    HW2 6003   9.062   9.265   7.006
34666SOL     OW 6004   9.295   7.622   6.565
34666SOL    HW1 6005   9.316   7.533   6.530
34666SOL    HW2 6006   9.208   7.643   6.523
34667SOL     OW 6007   7.699   7.758   6.278
34667SOL    HW1 6008   7.615   7.806   6.265
34667SOL    HW2 6009   7.715   7.769   6.373
34668SOL     OW 6010   8.638   9.077   5.607
34668SOL    HW1 6011   8.640   8.982   5.626
34668SOL    HW2 6012   8.570   9.085   5.538
34669SOL     OW 6013   8.267   8.442   6.968
34669SOL    HW1 6014   8.297   8.447   6.877
34669SOL    HW2 6015   8.264   8.537   6.994
34670SOL     OW 6016   8.355   8.352   5.857
34670SOL    HW1 6017   8.427   8.393   5.805
34670SOL    HW2 6018   8.398   8.276   5.899
34671SOL     OW 6019   8.997   9.077   5.617
34671SOL    HW1 6020   8.901   9.091   5.615
34671SOL    HW2 6021   9.018   9.075   5.521
34672SOL     OW 6022   7.783   8.723   7.072
34672SOL    HW1 6023   7.781   8.794   7.007
34672SOL    HW2 6024   7.699   8.675   7.059
34673SOL     OW 6025   9.055   8.759   6.856
34673SOL    HW1 6026   9.092   8.729   6.939
34673SOL    HW2 6027   8.995   8.830   6.887
34674SOL     OW 6028   8.499   8.562   6.318
34674SOL    HW1 6029   8.426   8.509   6.353
34674SOL    HW2 6030   8.559   8.494   6.283
34675SOL     OW 6031   8.479   7.677   6.573
34675SOL    HW1 6032   8.468   7.632   6.486
34675SOL    HW2 6033   8.482   7.600   6.633
34676SOL     OW 6034   8.061   8.926   6.078
34676SOL    HW1 6035   8.112   8.886   6.005
34676SOL    HW2 6036   8.002   8.986   6.033
34677SOL     OW 6037   9.158   7.821   6.962
34677SOL    HW1 6038   9.226   7.892   6.956
34677SOL    HW2 6039   9.201   7.749   6.911
34678SOL     OW 6040   7.697   8.824   5.856
34678SOL    HW1 6041   7.600   8.810   5.847
34678SOL    HW2 6042   7.704   8.846   5.951
34679SOL     OW 6043   7.581   8.460   7.292
34679SOL    HW1 6044   7.507   8.442   7.354
34679SOL    HW2 6045   7.659   8.422   7.337
34680SOL     OW 6046   8.120   7.636   7.077
34680SOL    HW1 6047   8.206   7.601   7.049
34680SOL    HW2 6048   8.143   7.678   7.162
34681SOL     OW 6049   7.556   7.793   5.596
34681SOL    HW1 6050   7.461   7.793   5.579
34681SOL    HW2 6051   7.588   7.862   5.534
34682SOL     OW 6052   8.899   8.299   6.978
34682SOL    HW1 6053   8.849   8.360   6.921
34682SOL    HW2 6054   8.990   8.325   6.957
34683SOL     OW 6055   7.489   7.612   5.881
34683SOL    HW1 6056   7.487   7.700   5.843
34683SOL    HW2 6057   7.571   7.576   5.842
34684SOL     OW 6058   8.653   8.801   5.695
34684SOL    HW1 6059   8.568   8.756   5.704
34684SOL    HW2 6060   8.680   8.809   5.788
34685SOL     OW 6061   8.067   8.258   7.023
34685SOL    HW1 6062   8.122   8.338   7.014
34685SOL    HW2 6063   8.137   8.191   7.028
34686SOL     OW 6064   8.951   9.201   6.550
34686SOL    HW1 6065   8.987   9.253   6.477
34686SOL    HW2 6066   9.026   9.195   6.610
34687SOL     OW 6067   8.178   7.981   7.273
34687SOL    HW1 6068   8.218   8.039   7.340
34687SOL    HW2 6069   8.197   7.890   7.305
34688SOL     OW 6070   8.910   8.623   7.216
34688SOL    HW1 6071   8.898   8.636   7.312
34688SOL    HW2 6072   9.003   8.647   7.204
34689SOL     OW 6073   7.823   9.187   7.149
34689SOL    HW1 6074   7.739   9.233   7.133
34689SOL    HW2 6075   7.792   9.100   7.181
34690SOL     OW 6076   9.150   8.334   6.824
34690SOL    HW1 6077   9.123   8.246   6.792
34690SOL    HW2 6078   9.111   8.395   6.759
34691SOL     OW 6079   8.644   7.766   6.065
34691SOL    HW1 6080   8.714   7.701   6.050
34691SOL    HW2 6081   8.685   7.822   6.135
34692SOL     OW 6082   8.049   8.191   6.243
34692SOL    HW1 6083   8.071   8.285   6.235
34692SOL    HW2 6084   7.980   8.181   6.175
34693SOL     OW 6085   9.216   7.827   7.224
34693SOL    HW1 6086   9.187   7.835   7.131
34693SOL    HW2 6087   9.141   7.779   7.263
34694SOL     OW 6088   9.195   8.387   7.085
34694SOL    HW1 6089   9.189   8.484   7.081
34694SOL    HW2 6090   9.193   8.362   6.990
34695SOL     OW 6091   8.300   8.807   5.622
34695SOL    HW1 6092   8.273   8.828   5.713
34695SOL    HW2 6093   8.328   8.892   5.585
34696SOL     OW 6094   8.086   9.257   6.502
34696SOL    HW1 6095   8.077   9.353   6.491
34696SOL    HW2 6096   8.182   9.243   6.501
34697SOL     OW 6097   8.321   8.393   6.439
34697SOL    HW1 6098   8.376   8.323   6.478
34697SOL    HW2 6099   8.301   8.449   6.515
34698SOL     OW 6100   8.547   8.457   5.692
34698SOL    HW1 6101   8.512   8.505   5.615
34698SOL    HW2 6102   8.605   8.392   5.649
34699SOL     OW 6103   9.311   9.004   6.431
34699SOL    HW1 6104   9.229   9.014   6.381
34699SOL    HW2 6105   9.286   8.944   6.502
34700SOL     OW 6106   7.690   8.765   7.451
34700SOL    HW1 6107   7.616   8.707   7.432
34700SOL    HW2 6108   7.683   8.776   7.548
34701SOL     OW 6109   7.523   8.705   6.243
34701SOL    HW1 6110   7.484   8.640   6.304
34701SOL    HW2 6111   7.595   8.654   6.203
34702SOL     OW 6112   8.121   8.847   7.199
34702SOL    HW1 6113   8.048   8.794   7.236
34702SOL    HW2 6114   8.109   8.933   7.243
34703SOL     OW 6115   9.267   7.616   6.824
34703SOL    HW1 6116   9.274   7.520   6.826
34703SOL    HW2 6117   9.279   7.634   6.729
34704SOL     OW 6118   7.897   7.882   6.125
34704SOL    HW1 6119   7.929   7.813   6.065
34704SOL    HW2 6120   7.841   7.835   6.188
34705SOL     OW 6121   9.170   8.929   6.666
34705SOL    HW1 6122   9.086   8.904   6.624
34705SOL    HW2 6123   9.163   8.876   6.747
34706SOL     OW 6124   7.767   7.986   6.861
34706SOL    HW1 6125   7.840   7.951   6.914
34706SOL    HW2 6126   7.790   7.962   6.770
34707SOL     OW 6127   8.268   9.039   6.265
34707SOL    HW1 6128   8.261   9.083   6.180
34707SOL    HW2 6129   8.183   8.993   6.272
34708SOL     OW 6130   8.875   7.700   6.683
34708SOL    HW1 6131   8.907   7.621   6.729
34708SOL    HW2 6132   8.823   7.746   6.754
34709SOL     OW 6133   8.460   7.448   6.737
34709SOL    HW1 6134   8.407   7.371   6.711
34709SOL    HW2 6135   8.550   7.409   6.737
34710SOL     OW 6136   8.240   8.791   5.899
34710SOL    HW1 6137   8.210   8.698   5.896
34710SOL    HW2 6138   8.308   8.787   5.968
34711SOL     OW 6139   8.054   8.998   6.859
34711SOL    HW1 6140   8.051   9.087   6.900
34711SOL    HW2 6141   8.146   8.996   6.831
34712SOL     OW 6142   8.767   7.481   5.760
34712SOL    HW1 6143   8.783   7.413   5.693
34712SOL    HW2 6144   8.678   7.454   5.792
34713SOL     OW 6145   8.757   7.926   6.262
34713SOL    HW1 6146   8.696   8.002   6.267
34713SOL    HW2 6147   8.734   7.878   6.344
34714SOL     OW 6148   9.050   7.656   6.452
34714SOL    HW1 6149   8.968   7.667   6.502
34714SOL    HW2 6150   9.052   7.736   6.397
34715SOL     OW 6151   7.498   8.532   5.886
34715SOL    HW1 6152   7.592   8.520   5.866
34715SOL    HW2 6153   7.472   8.438   5.900
34716SOL     OW 6154   8.327   9.091   5.921
34716SOL    HW1 6155   8.252   9.081   5.859
34716SOL    HW2 6156   8.306   9.174   5.970
34717SOL     OW 6157   7.688   8.083   7.577
34717SOL    HW1 6158   7.596   8.069   7.603
34717SOL    HW2 6159   7.691   8.057   7.484
34718SOL     OW 6160   7.687   7.733   8.447
34718SOL    HW1 6161   7.705   7.707   8.540
34718SOL    HW2 6162   7.600   7.691   8.433
34719SOL     OW 6163   7.456   7.851   8.070
34719SOL    HW1 6164   7.375   7.873   8.119
34719SOL    HW2 6165   7.433   7.766   8.031
34720SOL     OW 6166   8.027   8.738   8.645
34720SOL    HW1 6167   7.939   8.730   8.605
34720SOL    HW2 6168   8.028   8.830   8.674
34721SOL     OW 6169   8.989   8.976   8.161
34721SOL    HW1 6170   8.949   8.956   8.247
34721SOL    HW2 6171   8.915   8.978   8.097
34722SOL     OW 6172   8.578   8.132   8.160
34722SOL    HW1 6173   8.610   8.220   8.131
34722SOL    HW2 6174   8.537   8.153   8.245
34723SOL     OW 6175   9.228   8.059   7.689
34723SOL    HW1 6176   9.203   8.054   7.594
34723SOL    HW2 6177   9.175   7.986   7.725
34724SOL     OW 6178   8.182   8.604   8.471
34724SOL    HW1 6179   8.125   8.651   8.536
34724SOL    HW2 6180   8.223   8.679   8.425
34725SOL     OW 6181   8.329   8.198   9.251
34725SOL    HW1 6182   8.296   8.263   9.315
34725SOL    HW2 6183   8.352   8.252   9.173
34726SOL     OW 6184   8.143   8.478   8.111
34726SOL    HW1 6185   8.206   8.450   8.179
34726SOL    HW2 6186   8.076   8.526   8.162
34727SOL     OW 6187   8.142   8.599   9.255
34727SOL    HW1 6188   8.185   8.682   9.282
34727SOL    HW2 6189   8.055   8.630   9.221
34728SOL     OW 6190   7.770   8.870   8.514
34728SOL    HW1 6191   7.703   8.829   8.457
34728SOL    HW2 6192   7.823   8.925   8.453
34729SOL     OW 6193   8.919   8.945   8.826
34729SOL    HW1 6194   8.973   9.024   8.846
34729SOL    HW2 6195   8.850   8.950   8.894
34730SOL     OW 6196   7.870   7.842   8.982
34730SOL    HW1 6197   7.946   7.784   8.964
34730SOL    HW2 6198   7.794   7.787   8.958
34731SOL     OW 6199   9.071   7.900   8.189
34731SOL    HW1 6200   9.005   7.931   8.124
34731SOL    HW2 6201   9.043   7.947   8.269
34732SOL     OW 6202   7.668   9.161   7.923
34732SOL    HW1 6203   7.696   9.240   7.974
34732SOL    HW2 6204   7.729   9.164   7.848
34733SOL     OW 6205   8.563   8.795   9.118
34733SOL    HW1 6206   8.613   8.794   9.201
34733SOL    HW2 6207   8.521   8.707   9.121
34734SOL     OW 6208   7.698   8.880   7.980
34734SOL    HW1 6209   7.696   8.976   7.985
34734SOL    HW2 6210   7.629   8.852   8.042
34735SOL     OW 6211   7.714   8.536   8.354
34735SOL    HW1 6212   7.720   8.458   8.412
34735SOL    HW2 6213   7.661   8.597   8.407
34736SOL     OW 6214   8.038   9.252   8.844
34736SOL    HW1 6215   7.975   9.221   8.911
34736SOL    HW2 6216   8.068   9.338   8.881
34737SOL     OW 6217   8.019   8.435   7.566
34737SOL    HW1 6218   8.069   8.486   7.498
34737SOL    HW2 6219   8.062   8.469   7.647
34738SOL     OW 6220   9.047   7.554   8.937
34738SOL    HW1 6221   9.043   7.635   8.884
34738SOL    HW2 6222   9.054   7.590   9.026
34739SOL     OW 6223   7.578   8.100   8.009
34739SOL    HW1 6224   7.551   8.008   8.022
34739SOL    HW2 6225   7.568   8.139   8.098
34740SOL     OW 6226   9.293   9.184   7.800
34740SOL    HW1 6227   9.369   9.169   7.859
34740SOL    HW2 6228   9.307   9.277   7.776
34741SOL     OW 6229   7.519   9.048   7.559
34741SOL    HW1 6230   7.500   8.954   7.575
34741SOL    HW2 6231   7.480   9.090   7.638
34742SOL     OW 6232   9.151   8.368   8.072
34742SOL    HW1 6233   9.202   8.327   8.000
34742SOL    HW2 6234   9.098   8.433   8.023
34743SOL     OW 6235   9.081   8.579   7.889
34743SOL    HW1 6236   9.170   8.575   7.851
34743SOL    HW2 6237   9.091   8.646   7.959
34744SOL     OW 6238   7.563   8.195   9.032
34744SOL    HW1 6239   7.655   8.219   9.051
34744SOL    HW2 6240   7.518   8.274   9.063
34745SOL     OW 6241   8.035   8.859   8.204
34745SOL    HW1 6242   7.999   8.768   8.212
34745SOL    HW2 6243   8.028   8.874   8.108
34746SOL     OW 6244   8.741   8.679   8.873
34746SOL    HW1 6245   8.769   8.602   8.821
34746SOL    HW2 6246   8.788   8.664   8.958
34747SOL     OW 6247   8.280   7.452   7.934
34747SOL    HW1 6248   8.313   7.544   7.933
34747SOL    HW2 6249   8.184   7.467   7.945
34748SOL     OW 6250   7.623   8.429   8.701
34748SOL    HW1 6251   7.715   8.398   8.695
34748SOL    HW2 6252   7.573   8.354   8.668
34749SOL     OW 6253   8.986   8.427   7.645
34749SOL    HW1 6254   8.906   8.378   7.674
34749SOL    HW2 6255   9.017   8.464   7.729
34750SOL     OW 6256   8.618   9.252   9.064
34750SOL    HW1 6257   8.627   9.316   8.991
34750SOL    HW2 6258   8.646   9.169   9.021
34751SOL     OW 6259   7.791   7.675   9.231
34751SOL    HW1 6260   7.852   7.748   9.242
34751SOL    HW2 6261   7.710   7.710   9.273
34752SOL     OW 6262   8.919   8.876   8.413
34752SOL    HW1 6263   8.855   8.893   8.485
34752SOL    HW2 6264   8.888   8.788   8.381
34753SOL     OW 6265   9.116   9.178   8.058
34753SOL    HW1 6266   9.092   9.157   7.967
34753SOL    HW2 6267   9.074   9.104   8.106
34754SOL     OW 6268   8.032   8.161   7.707
34754SOL    HW1 6269   8.033   8.250   7.670
34754SOL    HW2 6270   7.965   8.168   7.778
34755SOL     OW 6271   8.708   7.781   8.353
34755SOL    HW1 6272   8.619   7.750   8.378
34755SOL    HW2 6273   8.764   7.740   8.422
34756SOL     OW 6274   9.025   9.093   7.743
34756SOL    HW1 6275   9.118   9.115   7.756
34756SOL    HW2 6276   9.021   9.088   7.645
34757SOL     OW 6277   8.254   8.071   8.903
34757SOL    HW1 6278   8.234   8.033   8.991
34757SOL    HW2 6279   8.205   8.010   8.844
34758SOL     OW 6280   8.841   7.928   9.118
34758SOL    HW1 6281   8.848   7.988   9.195
34758SOL    HW2 6282   8.904   7.857   9.140
34759SOL     OW 6283   8.413   8.331   9.030
34759SOL    HW1 6284   8.450   8.248   8.991
34759SOL    HW2 6285   8.369   8.371   8.953
34760SOL     OW 6286   8.428   7.850   8.676
34760SOL    HW1 6287   8.336   7.873   8.697
34760SOL    HW2 6288   8.419   7.798   8.596
34761SOL     OW 6289   8.486   8.136   7.860
34761SOL    HW1 6290   8.496   8.154   7.955
34761SOL    HW2 6291   8.401   8.088   7.858
34762SOL     OW 6292   7.560   8.247   8.242
34762SOL    HW1 6293   7.635   8.250   8.304
34762SOL    HW2 6294   7.521   8.335   8.255
34763SOL     OW 6295   7.553   9.269   9.015
34763SOL    HW1 6296   7.565   9.255   9.111
34763SOL    HW2 6297   7.458   9.286   9.008
34764SOL     OW 6298   8.325   7.815   7.657
34764SOL    HW1 6299   8.364   7.871   7.589
34764SOL    HW2 6300   8.351   7.728   7.625
34765SOL     OW 6301   9.164   8.033   9.290
34765SOL    HW1 6302   9.125   8.110   9.244
34765SOL    HW2 6303   9.195   7.981   9.214
34766SOL     OW 6304   8.813   8.601   8.012
34766SOL    HW1 6305   8.890   8.592   7.954
34766SOL    HW2 6306   8.757   8.661   7.960
34767SOL     OW 6307   7.997   7.644   8.343
34767SOL    HW1 6308   7.999   7.657   8.440
34767SOL    HW2 6309   7.993   7.734   8.309
34768SOL     OW 6310   8.440   8.887   7.950
34768SOL    HW1 6311   8.408   8.946   7.880
34768SOL    HW2 6312   8.414   8.935   8.030
34769SOL     OW 6313   7.794   9.264   8.305
34769SOL    HW1 6314   7.851   9.186   8.319
34769SOL    HW2 6315   7.857   9.338   8.318
34770SOL     OW 6316   9.279   8.475   8.323
34770SOL    HW1 6317   9.225   8.459   8.244
34770SOL    HW2 6318   9.211   8.482   8.392
34771SOL     OW 6319   8.673   9.005   8.951
34771SOL    HW1 6320   8.647   8.941   9.019
34771SOL    HW2 6321   8.626   8.970   8.874
34772SOL     OW 6322   7.761   8.389   7.696
34772SOL    HW1 6323   7.834   8.420   7.640
34772SOL    HW2 6324   7.735   8.306   7.653
34773SOL     OW 6325   8.922   8.202   8.160
34773SOL    HW1 6326   8.912   8.167   8.250
34773SOL    HW2 6327   9.008   8.246   8.165
34774SOL     OW 6328   7.908   8.715   9.175
34774SOL    HW1 6329   7.867   8.718   9.086
34774SOL    HW2 6330   7.828   8.721   9.232
34775SOL     OW 6331   8.541   9.214   7.688
34775SOL    HW1 6332   8.473   9.161   7.732
34775SOL    HW2 6333   8.553   9.167   7.603
34776SOL     OW 6334   7.613   7.736   8.942
34776SOL    HW1 6335   7.545   7.795   8.977
34776SOL    HW2 6336   7.606   7.659   9.001
34777SOL     OW 6337   9.075   8.811   7.542
34777SOL    HW1 6338   9.043   8.896   7.508
34777SOL    HW2 6339   9.010   8.747   7.508
34778SOL     OW 6340   7.900   9.194   7.764
34778SOL    HW1 6341   7.951   9.239   7.834
34778SOL    HW2 6342   7.969   9.152   7.711
34779SOL     OW 6343   8.843   7.578   7.892
34779SOL    HW1 6344   8.834   7.530   7.808
34779SOL    HW2 6345   8.940   7.586   7.901
34780SOL     OW 6346   7.687   9.245   8.674
34780SOL    HW1 6347   7.749   9.188   8.721
34780SOL    HW2 6348   7.686   9.207   8.585
34781SOL     OW 6349   8.398   9.151   8.334
34781SOL    HW1 6350   8.481   9.102   8.340
34781SOL    HW2 6351   8.352   9.103   8.263
34782SOL     OW 6352   7.846   8.143   7.917
34782SOL    HW1 6353   7.871   8.051   7.939
34782SOL    HW2 6354   7.750   8.140   7.935
34783SOL     OW 6355   8.985   7.705   9.173
34783SOL    HW1 6356   8.987   7.704   9.271
34783SOL    HW2 6357   8.918   7.637   9.155
34784SOL     OW 6358   8.078   7.581   7.539
34784SOL    HW1 6359   8.150   7.524   7.569
34784SOL    HW2 6360   8.031   7.523   7.475
34785SOL     OW 6361   8.219   7.698   9.179
34785SOL    HW1 6362   8.300   7.645   9.194
34785SOL    HW2 6363   8.168   7.682   9.260
34786SOL     OW 6364   8.327   8.993   8.644
34786SOL    HW1 6365   8.320   8.969   8.550
34786SOL    HW2 6366   8.388   8.926   8.679
34787SOL     OW 6367   8.782   8.043   8.873
34787SOL    HW1 6368   8.815   8.008   8.958
34787SOL    HW2 6369   8.836   8.123   8.861
34788SOL     OW 6370   8.245   8.863   8.372
34788SOL    HW1 6371   8.331   8.850   8.327
34788SOL    HW2 6372   8.182   8.859   8.298
34789SOL     OW 6373   8.389   7.975   8.361
34789SOL    HW1 6374   8.368   7.964   8.265
34789SOL    HW2 6375   8.417   7.886   8.384
34790SOL     OW 6376   8.008   7.500   7.954
34790SOL    HW1 6377   7.935   7.508   8.016
34790SOL    HW2 6378   7.993   7.577   7.895
34791SOL     OW 6379   8.888   8.624   7.478
34791SOL    HW1 6380   8.916   8.551   7.537
34791SOL    HW2 6381   8.802   8.648   7.513
34792SOL     OW 6382   7.726   7.489   7.640
34792SOL    HW1 6383   7.784   7.561   7.613
34792SOL    HW2 6384   7.790   7.429   7.683
34793SOL     OW 6385   8.379   7.703   7.941
34793SOL    HW1 6386   8.359   7.749   7.857
34793SOL    HW2 6387   8.476   7.715   7.945
34794SOL     OW 6388   8.532   8.121   8.919
34794SOL    HW1 6389   8.479   8.039   8.917
34794SOL    HW2 6390   8.623   8.090   8.911
34795SOL     OW 6391   8.667   9.044   8.245
34795SOL    HW1 6392   8.668   9.095   8.161
34795SOL    HW2 6393   8.745   9.078   8.290
34796SOL     OW 6394   7.919   8.616   8.192
34796SOL    HW1 6395   7.843   8.582   8.244
34796SOL    HW2 6396   7.892   8.592   8.101
34797SOL     OW 6397   8.713   9.258   8.058
34797SOL    HW1 6398   8.763   9.320   8.001
34797SOL    HW2 6399   8.669   9.319   8.119
34798SOL     OW 6400   8.506   7.981   7.475
34798SOL    HW1 6401   8.459   8.063   7.452
34798SOL    HW2 6402   8.577   8.011   7.535
34799SOL     OW 6403   7.505   8.006   8.846
34799SOL    HW1 6404   7.599   7.989   8.828
34799SOL    HW2 6405   7.511   8.084   8.905
34800SOL     OW 6406   8.018   7.677   8.610
34800SOL    HW1 6407   8.064   7.607   8.659
34800SOL    HW2 6408   7.927   7.668   8.645
34801SOL     OW 6409   8.334   7.909   8.112
34801SOL    HW1 6410   8.279   7.955   8.048
34801SOL    HW2 6411   8.349   7.823   8.067
34802SOL     OW 6412   8.480   7.512   8.218
34802SOL    HW1 6413   8.431   7.498   8.137
34802SOL    HW2 6414   8.457   7.433   8.271
34803SOL     OW 6415   8.857   8.628   8.335
34803SOL    HW1 6416   8.796   8.557   8.358
34803SOL    HW2 6417   8.857   8.623   8.238
34804SOL     OW 6418   8.934   8.022   8.421
34804SOL    HW1 6419   8.869   7.953   8.442
34804SOL    HW2 6420   8.993   8.023   8.498
34805SOL     OW 6421   9.277   8.269   7.850
34805SOL    HW1 6422   9.341   8.215   7.900
34805SOL    HW2 6423   9.260   8.210   7.774
34806SOL     OW 6424   7.936   8.877   7.563
34806SOL    HW1 6425   7.857   8.855   7.615
34806SOL    HW2 6426   7.925   8.826   7.482
34807SOL     OW 6427   9.120   8.740   8.118
34807SOL    HW1 6428   9.213   8.765   8.103
34807SOL    HW2 6429   9.076   8.824   8.140
34808SOL     OW 6430   8.850   8.040   7.505
34808SOL    HW1 6431   8.807   8.012   7.588
34808SOL    HW2 6432   8.941   8.011   7.519
34809SOL     OW 6433   7.971   7.684   7.767
34809SOL    HW1 6434   8.015   7.654   7.685
34809SOL    HW2 6435   7.937   7.771   7.736
34810SOL     OW 6436   9.181   8.676   9.023
34810SOL    HW1 6437   9.264   8.636   9.052
34810SOL    HW2 6438   9.199   8.770   9.039
34811SOL     OW 6439   8.517   8.811   8.789
34811SOL    HW1 6440   8.440   8.777   8.837
34811SOL    HW2 6441   8.590   8.761   8.832
34812SOL     OW 6442   9.049   9.045   9.095
34812SOL    HW1 6443   9.062   9.086   9.009
34812SOL    HW2 6444   9.131   8.993   9.104
34813SOL     OW 6445   8.580   8.674   8.545
34813SOL    HW1 6446   8.517   8.703   8.611
34813SOL    HW2 6447   8.550   8.718   8.464
34814SOL     OW 6448   9.056   8.552   8.511
34814SOL    HW1 6449   9.062   8.610   8.590
34814SOL    HW2 6450   8.991   8.600   8.457
34815SOL     OW 6451   8.361   7.545   8.843
34815SOL    HW1 6452   8.394   7.520   8.754
34815SOL    HW2 6453   8.438   7.591   8.880
34816SOL     OW 6454   8.443   8.559   9.191
34816SOL    HW1 6455   8.353   8.591   9.209
34816SOL    HW2 6456   8.429   8.486   9.128
34817SOL     OW 6457   8.154   8.510   7.791
34817SOL    HW1 6458   8.141   8.483   7.883
34817SOL    HW2 6459   8.231   8.455   7.765
34818SOL     OW 6460   7.868   8.266   8.717
34818SOL    HW1 6461   7.943   8.257   8.781
34818SOL    HW2 6462   7.825   8.180   8.726
34819SOL     OW 6463   8.731   7.838   8.705
34819SOL    HW1 6464   8.748   7.915   8.764
34819SOL    HW2 6465   8.639   7.852   8.678
34820SOL     OW 6466   7.522   9.015   8.779
34820SOL    HW1 6467   7.532   9.111   8.769
34820SOL    HW2 6468   7.616   8.987   8.780
34821SOL     OW 6469   7.832   8.548   7.951
34821SOL    HW1 6470   7.855   8.609   7.880
34821SOL    HW2 6471   7.815   8.466   7.902
34822SOL     OW 6472   7.986   7.994   8.294
34822SOL    HW1 6473   8.014   8.056   8.223
34822SOL    HW2 6474   8.055   8.008   8.360
34823SOL     OW 6475   8.677   8.791   7.839
34823SOL    HW1 6476   8.722   8.864   7.882
34823SOL    HW2 6477   8.585   8.804   7.870
34824SOL     OW 6478   8.743   8.922   8.621
34824SOL    HW1 6479   8.799   8.920   8.700
34824SOL    HW2 6480   8.673   8.859   8.643
34825SOL     OW 6481   9.027   8.050   7.920
34825SOL    HW1 6482   8.971   8.101   7.980
34825SOL    HW2 6483   9.061   8.118   7.860
34826SOL     OW 6484   7.786   8.949   8.759
34826SOL    HW1 6485   7.783   8.917   8.667
34826SOL    HW2 6486   7.880   8.975   8.763
34827SOL     OW 6487   7.890   8.179   9.072
34827SOL    HW1 6488   7.944   8.223   9.005
34827SOL    HW2 6489   7.923   8.088   9.067
34828SOL     OW 6490   9.077   8.227   9.129
34828SOL    HW1 6491   8.988   8.267   9.131
34828SOL    HW2 6492   9.116   8.272   9.051
34829SOL     OW 6493   8.445   7.555   9.216
34829SOL    HW1 6494   8.508   7.625   9.196
34829SOL    HW2 6495   8.484   7.481   9.166
34830SOL     OW 6496   7.951   7.456   9.209
34830SOL    HW1 6497   7.905   7.401   9.141
34830SOL    HW2 6498   7.889   7.532   9.214
34831SOL     OW 6499   8.011   8.342   8.492
34831SOL    HW1 6500   8.058   8.427   8.500
34831SOL    HW2 6501   7.971   8.329   8.580
34832SOL     OW 6502   8.807   8.305   8.467
34832SOL    HW1 6503   8.720   8.277   8.436
34832SOL    HW2 6504   8.852   8.220   8.479
34833SOL     OW 6505   8.673   7.970   7.714
34833SOL    HW1 6506   8.676   7.895   7.776
34833SOL    HW2 6507   8.613   8.030   7.763
34834SOL     OW 6508   7.758   7.651   8.701
34834SOL    HW1 6509   7.706   7.676   8.779
34834SOL    HW2 6510   7.736   7.556   8.692
34835SOL     OW 6511   7.470   8.750   8.731
34835SOL    HW1 6512   7.498   8.687   8.802
34835SOL    HW2 6513   7.493   8.836   8.768
34836SOL     OW 6514   8.166   8.098   8.499
34836SOL    HW1 6515   8.246   8.078   8.448
34836SOL    HW2 6516   8.138   8.187   8.471
34837SOL     OW 6517   9.208   8.404   9.303
34837SOL    HW1 6518   9.165   8.343   9.241
34837SOL    HW2 6519   9.145   8.402   9.378
34838SOL     OW 6520   7.740   7.511   8.061
34838SOL    HW1 6521   7.717   7.602   8.088
34838SOL    HW2 6522   7.751   7.467   8.148
34839SOL     OW 6523   9.048   7.821   7.792
34839SOL    HW1 6524   9.078   7.751   7.851
34839SOL    HW2 6525   9.037   7.897   7.852
34840SOL     OW 6526   8.516   8.210   8.421
34840SOL    HW1 6527   8.495   8.224   8.515
34840SOL    HW2 6528   8.485   8.118   8.409
34841SOL     OW 6529   8.427   9.020   9.155
34841SOL    HW1 6530   8.423   9.071   9.072
34841SOL    HW2 6531   8.457   8.932   9.125
34842SOL     OW 6532   9.299   8.935   9.054
34842SOL    HW1 6533   9.322   8.963   8.964
34842SOL    HW2 6534   9.378   8.962   9.104
34843SOL     OW 6535   7.795   8.339   9.254
34843SOL    HW1 6536   7.876   8.368   9.298
34843SOL    HW2 6537   7.828   8.270   9.192
34844SOL     OW 6538   8.950   7.701   7.572
34844SOL    HW1 6539   8.874   7.654   7.609
34844SOL    HW2 6540   8.990   7.744   7.651
34845SOL     OW 6541   8.730   8.287   7.474
34845SOL    HW1 6542   8.769   8.198   7.484
34845SOL    HW2 6543   8.762   8.311   7.385
34846SOL     OW 6544   8.509   8.813   8.295
34846SOL    HW1 6545   8.531   8.738   8.237
34846SOL    HW2 6546   8.578   8.879   8.275
34847SOL     OW 6547   7.736   8.272   8.451
34847SOL    HW1 6548   7.830   8.292   8.438
34847SOL    HW2 6549   7.739   8.177   8.470
34848SOL     OW 6550   7.770   7.994   8.449
34848SOL    HW1 6551   7.744   7.901   8.437
34848SOL    HW2 6552   7.840   8.004   8.381
34849SOL     OW 6553   8.598   7.824   9.134
34849SOL    HW1 6554   8.552   7.877   9.204
34849SOL    HW2 6555   8.686   7.865   9.136
34850SOL     OW 6556   8.608   7.646   8.930
34850SOL    HW1 6557   8.608   7.713   9.002
34850SOL    HW2 6558   8.654   7.694   8.860
34851SOL     OW 6559   7.448   8.780   7.639
34851SOL    HW1 6560   7.358   8.791   7.601
34851SOL    HW2 6561   7.446   8.687   7.669
34852SOL     OW 6562   7.549   9.226   8.392
34852SOL    HW1 6563   7.521   9.166   8.321
34852SOL    HW2 6564   7.641   9.248   8.364
34853SOL     OW 6565   7.930   9.033   8.379
34853SOL    HW1 6566   7.999   9.101   8.393
34853SOL    HW2 6567   7.976   8.971   8.319
34854SOL     OW 6568   8.427   8.220   8.685
34854SOL    HW1 6569   8.478   8.188   8.761
34854SOL    HW2 6570   8.338   8.193   8.710
34855SOL     OW 6571   7.474   7.967   8.559
34855SOL    HW1 6572   7.554   7.962   8.505
34855SOL    HW2 6573   7.511   7.977   8.648
34856SOL     OW 6574   7.657   7.960   9.153
34856SOL    HW1 6575   7.722   7.924   9.090
34856SOL    HW2 6576   7.616   8.034   9.104
34857SOL     OW 6577   8.843   8.368   9.098
34857SOL    HW1 6578   8.867   8.463   9.095
34857SOL    HW2 6579   8.835   8.346   9.003
34858SOL     OW 6580   8.249   8.020   7.827
34858SOL    HW1 6581   8.262   7.952   7.759
34858SOL    HW2 6582   8.172   8.069   7.794
34859SOL     OW 6583   9.084   8.069   8.657
34859SOL    HW1 6584   9.059   8.004   8.724
34859SOL    HW2 6585   9.166   8.031   8.621
34860SOL     OW 6586   7.698   8.988   9.171
34860SOL    HW1 6587   7.684   9.055   9.239
34860SOL    HW2 6588   7.701   8.906   9.224
34861SOL     OW 6589   8.127   7.930   8.711
34861SOL    HW1 6590   8.084   7.851   8.673
34861SOL    HW2 6591   8.130   7.991   8.635
34862SOL     OW 6592   8.372   9.140   8.917
34862SOL    HW1 6593   8.361   9.107   8.826
34862SOL    HW2 6594   8.366   9.237   8.907
34863SOL     OW 6595   7.890   7.918   7.649
34863SOL    HW1 6596   7.956   7.989   7.654
34863SOL    HW2 6597   7.809   7.970   7.639
34864SOL     OW 6598   7.554   8.576   8.919
34864SOL    HW1 6599   7.568   8.524   9.001
34864SOL    HW2 6600   7.581   8.511   8.849
34865SOL     OW 6601   8.771   8.482   8.686
34865SOL    HW1 6602   8.786   8.430   8.605
34865SOL    HW2 6603   8.708   8.548   8.653
34866SOL     OW 6604   8.757   8.310   7.744
34866SOL    HW1 6605   8.676   8.278   7.785
34866SOL    HW2 6606   8.735   8.311   7.649
34867SOL     OW 6607   9.220   9.193   8.587
34867SOL    HW1 6608   9.280   9.208   8.511
34867SOL    HW2 6609   9.206   9.096   8.577
34868SOL     OW 6610   8.695   9.184   8.564
34868SOL    HW1 6611   8.776   9.207   8.518
34868SOL    HW2 6612   8.706   9.088   8.578
34869SOL     OW 6613   7.533   8.720   8.470
34869SOL    HW1 6614   7.513   8.717   8.566
34869SOL    HW2 6615   7.478   8.648   8.434
34870SOL     OW 6616   8.142   9.084   9.187
34870SOL    HW1 6617   8.106   9.171   9.166
34870SOL    HW2 6618   8.233   9.088   9.154
34871SOL     OW 6619   9.125   7.587   7.934
34871SOL    HW1 6620   9.205   7.576   7.881
34871SOL    HW2 6621   9.125   7.506   7.988
34872SOL     OW 6622   8.828   9.029   7.941
34872SOL    HW1 6623   8.880   9.046   7.859
34872SOL    HW2 6624   8.778   9.112   7.951
34873SOL     OW 6625   7.597   9.245   9.282
34873SOL    HW1 6626   7.552   9.177   9.335
34873SOL    HW2 6627   7.646   9.291   9.352
34874SOL     OW 6628   8.698   8.367   8.112
34874SOL    HW1 6629   8.779   8.315   8.123
34874SOL    HW2 6630   8.733   8.447   8.067
34875SOL     OW 6631   8.258   8.708   8.884
34875SOL    HW1 6632   8.219   8.753   8.962
34875SOL    HW2 6633   8.194   8.735   8.816
34876SOL     OW 6634   8.112   9.067   7.609
34876SOL    HW1 6635   8.134   9.078   7.515
34876SOL    HW2 6636   8.053   8.989   7.603
34877SOL     OW 6637   9.074   9.164   8.844
34877SOL    HW1 6638   9.112   9.172   8.755
34877SOL    HW2 6639   9.057   9.256   8.870
34878SOL     OW 6640   9.281   7.617   8.424
34878SOL    HW1 6641   9.304   7.531   8.385
34878SOL    HW2 6642   9.195   7.637   8.382
34879SOL     OW 6643   7.702   7.767   8.150
34879SOL    HW1 6644   7.617   7.812   8.132
34879SOL    HW2 6645   7.712   7.779   8.246
34880SOL     OW 6646   8.631   9.073   7.471
34880SOL    HW1 6647   8.643   8.978   7.486
34880SOL    HW2 6648   8.570   9.076   7.394
34881SOL     OW 6649   8.270   8.448   8.833
34881SOL    HW1 6650   8.298   8.454   8.741
34881SOL    HW2 6651   8.267   8.542   8.861
34882SOL     OW 6652   8.356   8.359   7.720
34882SOL    HW1 6653   8.432   8.396   7.671
34882SOL    HW2 6654   8.395   8.282   7.764
34883SOL     OW 6655   9.006   9.072   7.474
34883SOL    HW1 6656   8.911   9.086   7.470
34883SOL    HW2 6657   9.030   9.075   7.378
34884SOL     OW 6658   7.792   8.718   8.934
34884SOL    HW1 6659   7.789   8.786   8.865
34884SOL    HW2 6660   7.707   8.673   8.927
34885SOL     OW 6661   9.059   8.755   8.717
34885SOL    HW1 6662   9.093   8.726   8.802
34885SOL    HW2 6663   8.992   8.821   8.746
34886SOL     OW 6664   8.505   8.562   8.176
34886SOL    HW1 6665   8.425   8.518   8.209
34886SOL    HW2 6666   8.564   8.487   8.157
34887SOL     OW 6667   8.473   7.677   8.436
34887SOL    HW1 6668   8.466   7.633   8.349
34887SOL    HW2 6669   8.475   7.600   8.496
34888SOL     OW 6670   8.059   8.937   7.944
34888SOL    HW1 6671   8.115   8.892   7.879
34888SOL    HW2 6672   7.992   8.979   7.889
34889SOL     OW 6673   9.153   7.820   8.829
34889SOL    HW1 6674   9.215   7.896   8.825
34889SOL    HW2 6675   9.202   7.753   8.776
34890SOL     OW 6676   7.694   8.826   7.716
34890SOL    HW1 6677   7.598   8.812   7.705
34890SOL    HW2 6678   7.702   8.843   7.812
34891SOL     OW 6679   7.579   8.458   9.158
34891SOL    HW1 6680   7.506   8.447   9.223
34891SOL    HW2 6681   7.657   8.424   9.206
34892SOL     OW 6682   8.115   7.632   8.935
34892SOL    HW1 6683   8.202   7.604   8.900
34892SOL    HW2 6684   8.139   7.668   9.022
34893SOL     OW 6685   7.544   7.796   7.487
34893SOL    HW1 6686   7.451   7.792   7.464
34893SOL    HW2 6687   7.577   7.865   7.426
34894SOL     OW 6688   8.906   8.299   8.833
34894SOL    HW1 6689   8.860   8.363   8.776
34894SOL    HW2 6690   8.997   8.332   8.831
34895SOL     OW 6691   7.494   7.610   7.741
34895SOL    HW1 6692   7.492   7.698   7.701
34895SOL    HW2 6693   7.577   7.574   7.704
34896SOL     OW 6694   8.652   8.800   7.561
34896SOL    HW1 6695   8.567   8.757   7.568
34896SOL    HW2 6696   8.680   8.806   7.654
34897SOL     OW 6697   8.072   8.259   8.884
34897SOL    HW1 6698   8.127   8.339   8.880
34897SOL    HW2 6699   8.142   8.191   8.890
34898SOL     OW 6700   8.954   9.228   8.413
34898SOL    HW1 6701   8.983   9.267   8.329
34898SOL    HW2 6702   9.037   9.199   8.453
34899SOL     OW 6703   8.177   7.977   9.138
34899SOL    HW1 6704   8.210   8.039   9.205
34899SOL    HW2 6705   8.190   7.890   9.178
34900SOL     OW 6706   8.914   8.629   9.075
34900SOL    HW1 6707   8.902   8.635   9.172
34900SOL    HW2 6708   9.008   8.651   9.066
34901SOL     OW 6709   7.824   9.181   9.010
34901SOL    HW1 6710   7.736   9.223   9.001
34901SOL    HW2 6711   7.799   9.096   9.051
34902SOL     OW 6712   9.158   8.328   8.670
34902SOL    HW1 6713   9.123   8.238   8.657
34902SOL    HW2 6714   9.108   8.381   8.606
34903SOL     OW 6715   8.648   7.774   7.919
34903SOL    HW1 6716   8.719   7.707   7.913
34903SOL    HW2 6717   8.680   7.830   7.993
34904SOL     OW 6718   8.053   8.193   8.110
34904SOL    HW1 6719   8.082   8.285   8.100
34904SOL    HW2 6720   7.980   8.188   8.045
34905SOL     OW 6721   9.215   7.826   9.087
34905SOL    HW1 6722   9.184   7.831   8.994
34905SOL    HW2 6723   9.139   7.782   9.128
34906SOL     OW 6724   9.179   8.392   8.935
34906SOL    HW1 6725   9.185   8.488   8.939
34906SOL    HW2 6726   9.197   8.372   8.842
34907SOL     OW 6727   8.302   8.808   7.481
34907SOL    HW1 6728   8.270   8.826   7.570
34907SOL    HW2 6729   8.324   8.896   7.446
34908SOL     OW 6730   8.092   9.243   8.358
34908SOL    HW1 6731   8.075   9.339   8.346
34908SOL    HW2 6732   8.187   9.240   8.375
34909SOL     OW 6733   8.321   8.393   8.303
34909SOL    HW1 6734   8.373   8.325   8.346
34909SOL    HW2 6735   8.296   8.451   8.377
34910SOL     OW 6736   8.548   8.465   7.554
34910SOL    HW1 6737   8.511   8.508   7.475
34910SOL    HW2 6738   8.608   8.400   7.512
34911SOL     OW 6739   9.315   9.007   8.287
34911SOL    HW1 6740   9.238   9.019   8.231
34911SOL    HW2 6741   9.288   8.939   8.350
34912SOL     OW 6742   7.688   8.766   9.319
34912SOL    HW1 6743   7.614   8.707   9.303
34912SOL    HW2 6744   7.676   8.785   9.414
34913SOL     OW 6745   7.527   8.714   8.113
34913SOL    HW1 6746   7.538   8.652   8.186
34913SOL    HW2 6747   7.588   8.677   8.047
34914SOL     OW 6748   8.112   8.847   9.058
34914SOL    HW1 6749   8.043   8.794   9.101
34914SOL    HW2 6750   8.106   8.931   9.108
34915SOL     OW 6751   9.267   7.621   8.684
34915SOL    HW1 6752   9.278   7.525   8.693
34915SOL    HW2 6753   9.273   7.630   8.587
34916SOL     OW 6754   7.887   7.882   7.983
34916SOL    HW1 6755   7.930   7.811   7.934
34916SOL    HW2 6756   7.833   7.835   8.050
34917SOL     OW 6757   9.165   8.938   8.531
34917SOL    HW1 6758   9.080   8.914   8.489
34917SOL    HW2 6759   9.162   8.877   8.608
34918SOL     OW 6760   7.774   7.982   8.736
34918SOL    HW1 6761   7.847   7.942   8.787
34918SOL    HW2 6762   7.795   7.958   8.645
34919SOL     OW 6763   8.272   9.041   8.118
34919SOL    HW1 6764   8.257   9.097   8.040
34919SOL    HW2 6765   8.186   8.998   8.131
34920SOL     OW 6766   8.871   7.685   8.541
34920SOL    HW1 6767   8.923   7.621   8.592
34920SOL    HW2 6768   8.826   7.737   8.611
34921SOL     OW 6769   8.462   7.451   8.605
34921SOL    HW1 6770   8.408   7.375   8.580
34921SOL    HW2 6771   8.553   7.413   8.600
34922SOL     OW 6772   8.239   8.791   7.765
34922SOL    HW1 6773   8.207   8.700   7.755
34922SOL    HW2 6774   8.312   8.780   7.827
34923SOL     OW 6775   8.046   9.008   8.716
34923SOL    HW1 6776   8.044   9.094   8.762
34923SOL    HW2 6777   8.140   9.001   8.696
34924SOL     OW 6778   8.757   7.478   7.636
34924SOL    HW1 6779   8.771   7.418   7.562
34924SOL    HW2 6780   8.667   7.451   7.665
34925SOL     OW 6781   8.741   7.924   8.124
34925SOL    HW1 6782   8.680   8.001   8.128
34925SOL    HW2 6783   8.723   7.879   8.208
34926SOL     OW 6784   9.044   7.653   8.310
34926SOL    HW1 6785   8.964   7.660   8.364
34926SOL    HW2 6786   9.040   7.734   8.255
34927SOL     OW 6787   7.494   8.528   7.756
34927SOL    HW1 6788   7.586   8.516   7.726
34927SOL    HW2 6789   7.468   8.435   7.773
34928SOL     OW 6790   8.331   9.089   7.783
34928SOL    HW1 6791   8.254   9.076   7.724
34928SOL    HW2 6792   8.310   9.171   7.831
34929SOL     OW 6793   7.682   8.083   9.445
34929SOL    HW1 6794   7.589   8.078   9.472
34929SOL    HW2 6795   7.680   8.064   9.350
34930SOL     OW 6796   7.686   7.721  10.283
34930SOL    HW1 6797   7.700   7.704  10.379
34930SOL    HW2 6798   7.596   7.683  10.272
34931SOL     OW 6799   7.443   7.852   9.930
34931SOL    HW1 6800   7.365   7.872   9.987
34931SOL    HW2 6801   7.418   7.767   9.893
34932SOL     OW 6802   8.013   8.746  10.461
34932SOL    HW1 6803   7.919   8.735  10.442
34932SOL    HW2 6804   8.014   8.827  10.514
34933SOL     OW 6805   9.004   8.972  10.023
34933SOL    HW1 6806   8.969   8.939  10.108
34933SOL    HW2 6807   8.930   8.962   9.961
34934SOL     OW 6808   8.561   8.138  10.000
34934SOL    HW1 6809   8.603   8.224   9.986
34934SOL    HW2 6810   8.518   8.151  10.086
34935SOL     OW 6811   9.224   8.052   9.549
34935SOL    HW1 6812   9.199   8.045   9.454
34935SOL    HW2 6813   9.168   7.984   9.589
34936SOL     OW 6814   8.199   8.601  10.343
34936SOL    HW1 6815   8.128   8.648  10.392
34936SOL    HW2 6816   8.232   8.675  10.288
34937SOL     OW 6817   8.333   8.207   0.021
34937SOL    HW1 6818   8.317   8.282   0.080
34937SOL    HW2 6819   8.362   8.254  11.041
34938SOL     OW 6820   8.142   8.478   9.982
34938SOL    HW1 6821   8.203   8.457  10.055
34938SOL    HW2 6822   8.070   8.527  10.025
34939SOL     OW 6823   7.765   8.883  10.386
34939SOL    HW1 6824   7.691   8.839  10.337
34939SOL    HW2 6825   7.813   8.929  10.315
34940SOL     OW 6826   8.919   8.948  10.664
34940SOL    HW1 6827   8.976   9.027  10.674
34940SOL    HW2 6828   8.849   8.966  10.728
34941SOL     OW 6829   7.902   7.832  10.777
34941SOL    HW1 6830   7.974   7.767  10.787
34941SOL    HW2 6831   7.823   7.784  10.807
34942SOL     OW 6832   9.087   7.894  10.045
34942SOL    HW1 6833   9.027   7.937   9.983
34942SOL    HW2 6834   9.064   7.943  10.127
34943SOL     OW 6835   7.671   9.171   9.794
34943SOL    HW1 6836   7.703   9.250   9.840
34943SOL    HW2 6837   7.729   9.167   9.716
34944SOL     OW 6838   7.695   8.879   9.846
34944SOL    HW1 6839   7.692   8.975   9.855
34944SOL    HW2 6840   7.627   8.849   9.908
34945SOL     OW 6841   7.713   8.528  10.187
34945SOL    HW1 6842   7.720   8.449  10.244
34945SOL    HW2 6843   7.663   8.589  10.244
34946SOL     OW 6844   8.045   9.248  10.728
34946SOL    HW1 6845   7.970   9.226  10.788
34946SOL    HW2 6846   8.065   9.340  10.752
34947SOL     OW 6847   8.014   8.441   9.428
34947SOL    HW1 6848   8.063   8.493   9.362
34947SOL    HW2 6849   8.058   8.470   9.511
34948SOL     OW 6850   9.048   7.561  10.787
34948SOL    HW1 6851   9.036   7.650  10.751
34948SOL    HW2 6852   9.035   7.573  10.882
34949SOL     OW 6853   7.563   8.095   9.873
34949SOL    HW1 6854   7.531   8.004   9.885
34949SOL    HW2 6855   7.550   8.135   9.961
34950SOL     OW 6856   9.293   9.184   9.661
34950SOL    HW1 6857   9.363   9.166   9.727
34950SOL    HW2 6858   9.312   9.276   9.638
34951SOL     OW 6859   7.494   9.045   9.431
34951SOL    HW1 6860   7.484   8.952   9.456
34951SOL    HW2 6861   7.464   9.091   9.511
34952SOL     OW 6862   9.127   8.349   9.924
34952SOL    HW1 6863   9.210   8.328   9.880
34952SOL    HW2 6864   9.092   8.419   9.866
34953SOL     OW 6865   9.089   8.563   9.763
34953SOL    HW1 6866   9.178   8.568   9.724
34953SOL    HW2 6867   9.096   8.632   9.833
34954SOL     OW 6868   7.560   8.191  10.906
34954SOL    HW1 6869   7.647   8.220  10.935
34954SOL    HW2 6870   7.513   8.275  10.897
34955SOL     OW 6871   8.040   8.862  10.070
34955SOL    HW1 6872   8.000   8.772  10.076
34955SOL    HW2 6873   8.033   8.878   9.974
34956SOL     OW 6874   8.745   8.695  10.759
34956SOL    HW1 6875   8.763   8.623  10.697
34956SOL    HW2 6876   8.800   8.672  10.835
34957SOL     OW 6877   8.278   7.450   9.812
34957SOL    HW1 6878   8.306   7.544   9.807
34957SOL    HW2 6879   8.182   7.460   9.826
34958SOL     OW 6880   7.631   8.398  10.617
34958SOL    HW1 6881   7.719   8.365  10.594
34958SOL    HW2 6882   7.573   8.346  10.560
34959SOL     OW 6883   8.991   8.406   9.494
34959SOL    HW1 6884   8.908   8.365   9.526
34959SOL    HW2 6885   9.026   8.446   9.575
34960SOL     OW 6886   8.653   9.247  10.914
34960SOL    HW1 6887   8.643   9.314  10.845
34960SOL    HW2 6888   8.666   9.166  10.862
34961SOL     OW 6889   7.799   7.689   0.029
34961SOL    HW1 6890   7.853   7.761   0.064
34961SOL    HW2 6891   7.714   7.734   0.014
34962SOL     OW 6892   8.919   8.861  10.262
34962SOL    HW1 6893   8.855   8.883  10.333
34962SOL    HW2 6894   8.896   8.768  10.242
34963SOL     OW 6895   9.100   9.189   9.904
34963SOL    HW1 6896   9.078   9.148   9.819
34963SOL    HW2 6897   9.079   9.116   9.965
34964SOL     OW 6898   8.025   8.162   9.577
34964SOL    HW1 6899   8.028   8.253   9.545
34964SOL    HW2 6900   7.955   8.165   9.645
34965SOL     OW 6901   8.731   7.786  10.226
34965SOL    HW1 6902   8.640   7.754  10.236
34965SOL    HW2 6903   8.775   7.749  10.304
34966SOL     OW 6904   9.020   9.095   9.623
34966SOL    HW1 6905   9.114   9.118   9.619
34966SOL    HW2 6906   9.002   9.076   9.529
34967SOL     OW 6907   8.259   8.068  10.777
34967SOL    HW1 6908   8.234   8.038  10.867
34967SOL    HW2 6909   8.211   8.006  10.719
34968SOL     OW 6910   8.416   8.324  10.889
34968SOL    HW1 6911   8.460   8.251  10.841
34968SOL    HW2 6912   8.363   8.368  10.820
34969SOL     OW 6913   8.426   7.840  10.551
34969SOL    HW1 6914   8.341   7.862  10.592
34969SOL    HW2 6915   8.397   7.786  10.476
34970SOL     OW 6916   8.484   8.135   9.716
34970SOL    HW1 6917   8.496   8.151   9.812
34970SOL    HW2 6918   8.397   8.088   9.714
34971SOL     OW 6919   7.550   8.253  10.105
34971SOL    HW1 6920   7.621   8.260  10.169
34971SOL    HW2 6921   7.504   8.338  10.114
34972SOL     OW 6922   7.559   9.282  10.877
34972SOL    HW1 6923   7.549   9.232  10.960
34972SOL    HW2 6924   7.467   9.296  10.851
34973SOL     OW 6925   8.321   7.819   9.514
34973SOL    HW1 6926   8.360   7.875   9.444
34973SOL    HW2 6927   8.348   7.731   9.485
34974SOL     OW 6928   8.812   8.598   9.881
34974SOL    HW1 6929   8.887   8.589   9.821
34974SOL    HW2 6930   8.756   8.661   9.832
34975SOL     OW 6931   8.000   7.631  10.196
34975SOL    HW1 6932   8.007   7.651  10.291
34975SOL    HW2 6933   7.975   7.717  10.159
34976SOL     OW 6934   8.436   8.893   9.782
34976SOL    HW1 6935   8.388   8.957   9.725
34976SOL    HW2 6936   8.446   8.943   9.865
34977SOL     OW 6937   7.787   9.259  10.163
34977SOL    HW1 6938   7.838   9.178  10.182
34977SOL    HW2 6939   7.852   9.329  10.183
34978SOL     OW 6940   9.261   8.480  10.172
34978SOL    HW1 6941   9.197   8.475  10.101
34978SOL    HW2 6942   9.206   8.489  10.251
34979SOL     OW 6943   8.685   9.012  10.795
34979SOL    HW1 6944   8.665   8.946  10.861
34979SOL    HW2 6945   8.622   8.987  10.725
34980SOL     OW 6946   7.751   8.403   9.559
34980SOL    HW1 6947   7.833   8.423   9.511
34980SOL    HW2 6948   7.724   8.319   9.519
34981SOL     OW 6949   8.922   8.207  10.034
34981SOL    HW1 6950   8.939   8.169  10.122
34981SOL    HW2 6951   9.003   8.260  10.019
34982SOL     OW 6952   7.905   8.751  11.040
34982SOL    HW1 6953   7.877   8.748  10.945
34982SOL    HW2 6954   7.871   8.667  11.073
34983SOL     OW 6955   8.541   9.232   9.554
34983SOL    HW1 6956   8.482   9.175   9.605
34983SOL    HW2 6957   8.554   9.181   9.472
34984SOL     OW 6958   7.621   7.730  10.784
34984SOL    HW1 6959   7.559   7.797  10.815
34984SOL    HW2 6960   7.602   7.654  10.841
34985SOL     OW 6961   9.067   8.806   9.412
34985SOL    HW1 6962   9.020   8.889   9.394
34985SOL    HW2 6963   9.007   8.740   9.372
34986SOL     OW 6964   7.908   9.184   9.631
34986SOL    HW1 6965   7.955   9.238   9.698
34986SOL    HW2 6966   7.981   9.151   9.575
34987SOL     OW 6967   8.852   7.570   9.753
34987SOL    HW1 6968   8.819   7.535   9.668
34987SOL    HW2 6969   8.946   7.552   9.747
34988SOL     OW 6970   7.693   9.243  10.536
34988SOL    HW1 6971   7.758   9.185  10.577
34988SOL    HW2 6972   7.675   9.202  10.451
34989SOL     OW 6973   8.405   9.159  10.185
34989SOL    HW1 6974   8.485   9.107  10.201
34989SOL    HW2 6975   8.361   9.105  10.116
34990SOL     OW 6976   7.837   8.142   9.780
34990SOL    HW1 6977   7.863   8.049   9.795
34990SOL    HW2 6978   7.742   8.138   9.803
34991SOL     OW 6979   8.074   7.580   9.406
34991SOL    HW1 6980   8.145   7.523   9.437
34991SOL    HW2 6981   8.030   7.523   9.340
34992SOL     OW 6982   8.222   7.707  11.024
34992SOL    HW1 6983   8.291   7.669  11.080
34992SOL    HW2 6984   8.158   7.739  11.090
34993SOL     OW 6985   8.347   8.995  10.505
34993SOL    HW1 6986   8.335   8.955  10.418
34993SOL    HW2 6987   8.413   8.937  10.548
34994SOL     OW 6988   8.791   8.041  10.723
34994SOL    HW1 6989   8.847   8.011  10.795
34994SOL    HW2 6990   8.827   8.132  10.708
34995SOL     OW 6991   8.260   8.848  10.249
34995SOL    HW1 6992   8.344   8.846  10.200
34995SOL    HW2 6993   8.193   8.852  10.179
34996SOL     OW 6994   8.402   7.969  10.220
34996SOL    HW1 6995   8.376   7.955  10.126
34996SOL    HW2 6996   8.417   7.878  10.248
34997SOL     OW 6997   8.010   7.500   9.817
34997SOL    HW1 6998   7.932   7.510   9.874
34997SOL    HW2 6999   7.999   7.578   9.758
34998SOL     OW 7000   8.890   8.616   9.335
34998SOL    HW1 7001   8.917   8.541   9.391
34998SOL    HW2 7002   8.803   8.640   9.369
34999SOL     OW 7003   7.730   7.485   9.499
34999SOL    HW1 7004   7.791   7.557   9.478
34999SOL    HW2 7005   7.791   7.422   9.541
35000SOL     OW 7006   8.374   7.703   9.802
35000SOL    HW1 7007   8.351   7.751   9.721
35000SOL    HW2 7008   8.471   7.718   9.804
35001SOL     OW 7009   8.542   8.126  10.754
35001SOL    HW1 7010   8.483   8.049  10.762
35001SOL    HW2 7011   8.631   8.086  10.746
35002SOL     OW 7012   8.672   9.028  10.115
35002SOL    HW1 7013   8.683   9.085  10.037
35002SOL    HW2 7014   8.750   9.050  10.168
35003SOL     OW 7015   7.916   8.619  10.044
35003SOL    HW1 7016   7.841   8.588  10.099
35003SOL    HW2 7017   7.884   8.589   9.955
35004SOL     OW 7018   8.711   9.252   9.924
35004SOL    HW1 7019   8.754   9.315   9.862
35004SOL    HW2 7020   8.666   9.311   9.986
35005SOL     OW 7021   8.498   7.988   9.320
35005SOL    HW1 7022   8.447   8.070   9.302
35005SOL    HW2 7023   8.560   8.017   9.389
35006SOL     OW 7024   7.529   8.005  10.706
35006SOL    HW1 7025   7.620   8.009  10.671
35006SOL    HW2 7026   7.528   8.080  10.769
35007SOL     OW 7027   8.019   7.668  10.469
35007SOL    HW1 7028   8.059   7.599  10.522
35007SOL    HW2 7029   7.928   7.667  10.501
35008SOL     OW 7030   8.330   7.909   9.979
35008SOL    HW1 7031   8.281   7.958   9.912
35008SOL    HW2 7032   8.333   7.820   9.941
35009SOL     OW 7033   8.508   7.519  10.077
35009SOL    HW1 7034   8.453   7.515   9.998
35009SOL    HW2 7035   8.474   7.442  10.128
35010SOL     OW 7036   8.873   8.604  10.200
35010SOL    HW1 7037   8.793   8.552  10.214
35010SOL    HW2 7038   8.872   8.615  10.104
35011SOL     OW 7039   8.955   8.025  10.258
35011SOL    HW1 7040   8.885   7.963  10.280
35011SOL    HW2 7041   9.001   8.039  10.344
35012SOL     OW 7042   9.285   8.270   9.702
35012SOL    HW1 7043   9.344   8.219   9.760
35012SOL    HW2 7044   9.270   8.205   9.630
35013SOL     OW 7045   7.944   8.872   9.427
35013SOL    HW1 7046   7.864   8.855   9.479
35013SOL    HW2 7047   7.926   8.824   9.345
35014SOL     OW 7048   9.126   8.732   9.972
35014SOL    HW1 7049   9.224   8.736   9.980
35014SOL    HW2 7050   9.097   8.823   9.987
35015SOL     OW 7051   8.847   8.037   9.377
35015SOL    HW1 7052   8.793   8.017   9.456
35015SOL    HW2 7053   8.926   7.983   9.394
35016SOL     OW 7054   7.970   7.688   9.630
35016SOL    HW1 7055   8.013   7.658   9.547
35016SOL    HW2 7056   7.938   7.776   9.601
35017SOL     OW 7057   9.211   8.677  10.865
35017SOL    HW1 7058   9.301   8.654  10.891
35017SOL    HW2 7059   9.205   8.770  10.895
35018SOL     OW 7060   8.503   8.832  10.676
35018SOL    HW1 7061   8.427   8.781  10.710
35018SOL    HW2 7062   8.577   8.770  10.690
35019SOL     OW 7063   8.562   8.684  10.413
35019SOL    HW1 7064   8.475   8.681  10.454
35019SOL    HW2 7065   8.542   8.722  10.325
35020SOL     OW 7066   9.076   8.545  10.388
35020SOL    HW1 7067   9.083   8.612  10.459
35020SOL    HW2 7068   9.003   8.583  10.336
35021SOL     OW 7069   8.354   7.569  10.681
35021SOL    HW1 7070   8.391   7.533  10.598
35021SOL    HW2 7071   8.435   7.600  10.727
35022SOL     OW 7072   8.151   8.503   9.656
35022SOL    HW1 7073   8.144   8.480   9.749
35022SOL    HW2 7074   8.230   8.451   9.629
35023SOL     OW 7075   7.879   8.262  10.587
35023SOL    HW1 7076   7.948   8.264  10.656
35023SOL    HW2 7077   7.845   8.170  10.594
35024SOL     OW 7078   8.696   7.817  10.584
35024SOL    HW1 7079   8.722   7.900  10.628
35024SOL    HW2 7080   8.606   7.837  10.549
35025SOL     OW 7081   7.524   9.010  10.637
35025SOL    HW1 7082   7.502   9.103  10.622
35025SOL    HW2 7083   7.621   9.010  10.644
35026SOL     OW 7084   7.820   8.541   9.805
35026SOL    HW1 7085   7.849   8.608   9.742
35026SOL    HW2 7086   7.795   8.467   9.747
35027SOL     OW 7087   7.984   7.987  10.151
35027SOL    HW1 7088   8.012   8.054  10.085
35027SOL    HW2 7089   8.050   7.997  10.221
35028SOL     OW 7090   8.671   8.782   9.704
35028SOL    HW1 7091   8.714   8.860   9.740
35028SOL    HW2 7092   8.578   8.797   9.730
35029SOL     OW 7093   8.738   8.908  10.464
35029SOL    HW1 7094   8.795   8.908  10.543
35029SOL    HW2 7095   8.678   8.834  10.479
35030SOL     OW 7096   9.035   8.070   9.792
35030SOL    HW1 7097   8.987   8.123   9.857
35030SOL    HW2 7098   9.059   8.137   9.726
35031SOL     OW 7099   7.797   8.952  10.637
35031SOL    HW1 7100   7.782   8.924  10.544
35031SOL    HW2 7101   7.893   8.969  10.639
35032SOL     OW 7102   7.899   8.161  10.935
35032SOL    HW1 7103   7.959   8.205  10.872
35032SOL    HW2 7104   7.905   8.069  10.908
35033SOL     OW 7105   9.061   8.213  10.993
35033SOL    HW1 7106   8.999   8.279  11.023
35033SOL    HW2 7107   9.122   8.265  10.939
35034SOL     OW 7108   8.008   8.344  10.354
35034SOL    HW1 7109   8.056   8.427  10.359
35034SOL    HW2 7110   7.974   8.330  10.445
35035SOL     OW 7111   8.775   8.303  10.348
35035SOL    HW1 7112   8.704   8.265  10.295
35035SOL    HW2 7113   8.840   8.232  10.351
35036SOL     OW 7114   8.667   7.970   9.575
35036SOL    HW1 7115   8.667   7.895   9.638
35036SOL    HW2 7116   8.606   8.032   9.619
35037SOL     OW 7117   7.729   7.661  10.543
35037SOL    HW1 7118   7.692   7.690  10.629
35037SOL    HW2 7119   7.712   7.565  10.547
35038SOL     OW 7120   7.499   8.726  10.593
35038SOL    HW1 7121   7.527   8.678  10.673
35038SOL    HW2 7122   7.491   8.818  10.624
35039SOL     OW 7123   8.159   8.094  10.349
35039SOL    HW1 7124   8.240   8.087  10.296
35039SOL    HW2 7125   8.119   8.178  10.323
35040SOL     OW 7126   7.769   7.520   9.925
35040SOL    HW1 7127   7.731   7.607   9.945
35040SOL    HW2 7128   7.768   7.476  10.012
35041SOL     OW 7129   9.045   7.830   9.663
35041SOL    HW1 7130   9.067   7.767   9.733
35041SOL    HW2 7131   9.035   7.913   9.715
35042SOL     OW 7132   8.501   8.212  10.271
35042SOL    HW1 7133   8.485   8.231  10.366
35042SOL    HW2 7134   8.472   8.119  10.264
35043SOL     OW 7135   8.437   8.999  10.968
35043SOL    HW1 7136   8.423   9.066  10.897
35043SOL    HW2 7137   8.399   8.920  10.927
35044SOL     OW 7138   9.301   8.945  10.897
35044SOL    HW1 7139   9.320   8.969  10.805
35044SOL    HW2 7140   9.385   8.966  10.941
35045SOL     OW 7141   7.824   8.365  11.080
35045SOL    HW1 7142   7.904   8.384   0.030
35045SOL    HW2 7143   7.850   8.283  11.033
35046SOL     OW 7144   8.958   7.700   9.438
35046SOL    HW1 7145   8.881   7.652   9.472
35046SOL    HW2 7146   8.993   7.746   9.516
35047SOL     OW 7147   8.733   8.283   9.329
35047SOL    HW1 7148   8.775   8.196   9.337
35047SOL    HW2 7149   8.766   8.313   9.242
35048SOL     OW 7150   8.513   8.811  10.162
35048SOL    HW1 7151   8.522   8.737  10.098
35048SOL    HW2 7152   8.582   8.875  10.135
35049SOL     OW 7153   7.738   8.272  10.320
35049SOL    HW1 7154   7.834   8.289  10.320
35049SOL    HW2 7155   7.735   8.177  10.335
35050SOL     OW 7156   7.770   7.976  10.312
35050SOL    HW1 7157   7.744   7.884  10.293
35050SOL    HW2 7158   7.837   7.991  10.241
35051SOL     OW 7159   8.596   7.654  10.776
35051SOL    HW1 7160   8.630   7.713  10.844
35051SOL    HW2 7161   8.633   7.694  10.695
35052SOL     OW 7162   7.452   8.768   9.484
35052SOL    HW1 7163   7.358   8.782   9.457
35052SOL    HW2 7164   7.447   8.681   9.529
35053SOL     OW 7165   7.533   9.225  10.245
35053SOL    HW1 7166   7.503   9.149  10.192
35053SOL    HW2 7167   7.625   9.238  10.212
35054SOL     OW 7168   7.936   9.044  10.248
35054SOL    HW1 7169   8.010   9.100  10.277
35054SOL    HW2 7170   7.980   8.979  10.190
35055SOL     OW 7171   8.426   8.236  10.536
35055SOL    HW1 7172   8.487   8.201  10.603
35055SOL    HW2 7173   8.342   8.198  10.566
35056SOL     OW 7174   7.479   7.960  10.425
35056SOL    HW1 7175   7.559   7.964  10.372
35056SOL    HW2 7176   7.513   7.940  10.513
35057SOL     OW 7177   8.244   8.020   9.688
35057SOL    HW1 7178   8.256   7.952   9.620
35057SOL    HW2 7179   8.167   8.070   9.655
35058SOL     OW 7180   9.098   8.069  10.488
35058SOL    HW1 7181   9.088   8.010  10.564
35058SOL    HW2 7182   9.185   8.040  10.453
35059SOL     OW 7183   7.693   8.985  11.030
35059SOL    HW1 7184   7.646   9.017   0.008
35059SOL    HW2 7185   7.739   8.907  11.063
35060SOL     OW 7186   8.145   7.928  10.579
35060SOL    HW1 7187   8.090   7.854  10.550
35060SOL    HW2 7188   8.139   7.990  10.504
35061SOL     OW 7189   8.384   9.143  10.742
35061SOL    HW1 7190   8.363   9.112  10.653
35061SOL    HW2 7191   8.358   9.236  10.741
35062SOL     OW 7192   7.884   7.917   9.509
35062SOL    HW1 7193   7.950   7.987   9.519
35062SOL    HW2 7194   7.803   7.969   9.500
35063SOL     OW 7195   7.599   8.591  10.794
35063SOL    HW1 7196   7.597   8.539  10.877
35063SOL    HW2 7197   7.612   8.521  10.726
35064SOL     OW 7198   8.744   8.509  10.545
35064SOL    HW1 7199   8.766   8.444  10.475
35064SOL    HW2 7200   8.678   8.564  10.500
35065SOL     OW 7201   8.754   8.308   9.596
35065SOL    HW1 7202   8.670   8.284   9.636
35065SOL    HW2 7203   8.735   8.306   9.500
35066SOL     OW 7204   9.209   9.201  10.439
35066SOL    HW1 7205   9.278   9.223  10.375
35066SOL    HW2 7206   9.201   9.103  10.429
35067SOL     OW 7207   8.692   9.179  10.444
35067SOL    HW1 7208   8.779   9.202  10.409
35067SOL    HW2 7209   8.698   9.081  10.449
35068SOL     OW 7210   7.565   8.704  10.337
35068SOL    HW1 7211   7.548   8.719  10.433
35068SOL    HW2 7212   7.478   8.675  10.308
35069SOL     OW 7213   9.207   7.575   9.863
35069SOL    HW1 7214   9.236   7.570   9.770
35069SOL    HW2 7215   9.176   7.484   9.882
35070SOL     OW 7216   8.815   9.021   9.803
35070SOL    HW1 7217   8.876   9.039   9.729
35070SOL    HW2 7218   8.775   9.108   9.821
35071SOL     OW 7219   8.698   8.373   9.986
35071SOL    HW1 7220   8.777   8.320  10.002
35071SOL    HW2 7221   8.734   8.448   9.934
35072SOL     OW 7222   8.258   8.705  10.747
35072SOL    HW1 7223   8.231   8.745  10.832
35072SOL    HW2 7224   8.184   8.729  10.690
35073SOL     OW 7225   8.114   9.071   9.467
35073SOL    HW1 7226   8.131   9.081   9.372
35073SOL    HW2 7227   8.055   8.992   9.466
35074SOL     OW 7228   9.076   9.163  10.681
35074SOL    HW1 7229   9.121   9.179  10.597
35074SOL    HW2 7230   9.066   9.252  10.718
35075SOL     OW 7231   9.297   7.612  10.229
35075SOL    HW1 7232   9.317   7.516  10.233
35075SOL    HW2 7233   9.200   7.617  10.244
35076SOL     OW 7234   7.695   7.770  10.005
35076SOL    HW1 7235   7.608   7.812   9.993
35076SOL    HW2 7236   7.705   7.768  10.101
35077SOL     OW 7237   8.634   9.073   9.345
35077SOL    HW1 7238   8.639   8.976   9.355
35077SOL    HW2 7239   8.574   9.084   9.269
35078SOL     OW 7240   8.261   8.436  10.696
35078SOL    HW1 7241   8.303   8.423  10.610
35078SOL    HW2 7242   8.278   8.530  10.714
35079SOL     OW 7243   8.360   8.362   9.583
35079SOL    HW1 7244   8.435   8.401   9.534
35079SOL    HW2 7245   8.398   8.282   9.622
35080SOL     OW 7246   8.946   9.039   9.357
35080SOL    HW1 7247   8.852   9.063   9.352
35080SOL    HW2 7248   8.977   9.055   9.266
35081SOL     OW 7249   7.819   8.734  10.796
35081SOL    HW1 7250   7.797   8.808  10.737
35081SOL    HW2 7251   7.735   8.683  10.796
35082SOL     OW 7252   9.068   8.745  10.576
35082SOL    HW1 7253   9.116   8.717  10.655
35082SOL    HW2 7254   9.007   8.812  10.613
35083SOL     OW 7255   8.498   8.572  10.030
35083SOL    HW1 7256   8.421   8.521  10.062
35083SOL    HW2 7257   8.562   8.501  10.012
35084SOL     OW 7258   8.479   7.683  10.296
35084SOL    HW1 7259   8.473   7.637  10.210
35084SOL    HW2 7260   8.476   7.609  10.359
35085SOL     OW 7261   8.065   8.931   9.804
35085SOL    HW1 7262   8.114   8.894   9.729
35085SOL    HW2 7263   7.986   8.967   9.763
35086SOL     OW 7264   9.155   7.837  10.689
35086SOL    HW1 7265   9.226   7.902  10.700
35086SOL    HW2 7266   9.191   7.779  10.618
35087SOL     OW 7267   7.694   8.831   9.583
35087SOL    HW1 7268   7.599   8.812   9.575
35087SOL    HW2 7269   7.703   8.847   9.680
35088SOL     OW 7270   7.587   8.464  11.019
35088SOL    HW1 7271   7.522   8.437  11.085
35088SOL    HW2 7272   7.671   8.429  11.055
35089SOL     OW 7273   8.114   7.645  10.779
35089SOL    HW1 7274   8.200   7.631  10.734
35089SOL    HW2 7275   8.144   7.669  10.869
35090SOL     OW 7276   7.548   7.781   9.315
35090SOL    HW1 7277   7.452   7.789   9.310
35090SOL    HW2 7278   7.578   7.854   9.258
35091SOL     OW 7279   8.887   8.294  10.711
35091SOL    HW1 7280   8.832   8.362  10.672
35091SOL    HW2 7281   8.977   8.324  10.687
35092SOL     OW 7282   7.502   7.607   9.615
35092SOL    HW1 7283   7.502   7.698   9.581
35092SOL    HW2 7284   7.584   7.571   9.576
35093SOL     OW 7285   8.651   8.800   9.424
35093SOL    HW1 7286   8.570   8.749   9.433
35093SOL    HW2 7287   8.681   8.806   9.517
35094SOL     OW 7288   8.079   8.261  10.763
35094SOL    HW1 7289   8.139   8.336  10.744
35094SOL    HW2 7290   8.143   8.187  10.767
35095SOL     OW 7291   8.966   9.202  10.290
35095SOL    HW1 7292   8.997   9.247  10.211
35095SOL    HW2 7293   9.043   9.204  10.348
35096SOL     OW 7294   8.182   7.997  11.032
35096SOL    HW1 7295   8.221   8.070  11.084
35096SOL    HW2 7296   8.244   7.924  11.047
35097SOL     OW 7297   7.818   9.172  10.872
35097SOL    HW1 7298   7.740   9.227  10.857
35097SOL    HW2 7299   7.783   9.101  10.929
35098SOL     OW 7300   9.129   8.340  10.572
35098SOL    HW1 7301   9.114   8.251  10.536
35098SOL    HW2 7302   9.108   8.399  10.498
35099SOL     OW 7303   8.643   7.771   9.773
35099SOL    HW1 7304   8.712   7.703   9.774
35099SOL    HW2 7305   8.672   7.828   9.848
35100SOL     OW 7306   8.047   8.193   9.969
35100SOL    HW1 7307   8.079   8.284   9.960
35100SOL    HW2 7308   7.974   8.189   9.905
35101SOL     OW 7309   9.216   7.784  10.949
35101SOL    HW1 7310   9.179   7.804  10.861
35101SOL    HW2 7311   9.138   7.772  11.003
35102SOL     OW 7312   9.202   8.395  10.828
35102SOL    HW1 7313   9.199   8.492  10.835
35102SOL    HW2 7314   9.192   8.380  10.733
35103SOL     OW 7315   8.291   8.808   9.341
35103SOL    HW1 7316   8.264   8.822   9.433
35103SOL    HW2 7317   8.324   8.895   9.313
35104SOL     OW 7318   8.122   9.240  10.264
35104SOL    HW1 7319   8.095   9.330  10.236
35104SOL    HW2 7320   8.207   9.227  10.220
35105SOL     OW 7321   8.326   8.407  10.169
35105SOL    HW1 7322   8.378   8.332  10.202
35105SOL    HW2 7323   8.304   8.456  10.250
35106SOL     OW 7324   8.552   8.460   9.415
35106SOL    HW1 7325   8.511   8.501   9.337
35106SOL    HW2 7326   8.608   8.392   9.373
35107SOL     OW 7327   9.295   9.002  10.160
35107SOL    HW1 7328   9.217   8.989  10.105
35107SOL    HW2 7329   9.277   8.949  10.238
35108SOL     OW 7330   7.538   8.702   9.989
35108SOL    HW1 7331   7.527   8.637  10.061
35108SOL    HW2 7332   7.617   8.669   9.945
35109SOL     OW 7333   8.136   8.864  10.944
35109SOL    HW1 7334   8.062   8.815  10.982
35109SOL    HW2 7335   8.092   8.944  10.914
35110SOL     OW 7336   9.249   7.652  10.512
35110SOL    HW1 7337   9.279   7.569  10.552
35110SOL    HW2 7338   9.280   7.646  10.421
35111SOL     OW 7339   7.886   7.883   9.836
35111SOL    HW1 7340   7.925   7.809   9.789
35111SOL    HW2 7341   7.833   7.841   9.906
35112SOL     OW 7342   9.174   8.938  10.412
35112SOL    HW1 7343   9.093   8.911  10.367
35112SOL    HW2 7344   9.173   8.877  10.487
35113SOL     OW 7345   7.795   7.999  10.593
35113SOL    HW1 7346   7.846   7.938  10.650
35113SOL    HW2 7347   7.799   7.958  10.505
35114SOL     OW 7348   8.277   9.039   9.982
35114SOL    HW1 7349   8.271   9.070   9.891
35114SOL    HW2 7350   8.192   8.993   9.992
35115SOL     OW 7351   8.881   7.688  10.436
35115SOL    HW1 7352   8.916   7.616  10.490
35115SOL    HW2 7353   8.817   7.731  10.497
35116SOL     OW 7354   8.462   7.460  10.455
35116SOL    HW1 7355   8.408   7.386  10.422
35116SOL    HW2 7356   8.551   7.418  10.460
35117SOL     OW 7357   8.235   8.789   9.620
35117SOL    HW1 7358   8.200   8.699   9.624
35117SOL    HW2 7359   8.312   8.784   9.677
35118SOL     OW 7360   8.063   9.005  10.616
35118SOL    HW1 7361   8.064   9.095  10.656
35118SOL    HW2 7362   8.136   9.011  10.553
35119SOL     OW 7363   8.764   7.500   9.504
35119SOL    HW1 7364   8.783   7.442   9.429
35119SOL    HW2 7365   8.674   7.469   9.530
35120SOL     OW 7366   8.725   7.914   9.981
35120SOL    HW1 7367   8.672   7.996   9.986
35120SOL    HW2 7368   8.719   7.878  10.071
35121SOL     OW 7369   9.032   7.658  10.204
35121SOL    HW1 7370   8.974   7.659  10.282
35121SOL    HW2 7371   8.994   7.727  10.149
35122SOL     OW 7372   7.494   8.527   9.622
35122SOL    HW1 7373   7.588   8.519   9.600
35122SOL    HW2 7374   7.473   8.434   9.645
35123SOL     OW 7375   8.321   9.095   9.639
35123SOL    HW1 7376   8.247   9.084   9.577
35123SOL    HW2 7377   8.302   9.179   9.685
35124SOL     OW 7378   7.698   9.952   0.142
35124SOL    HW1 7379   7.617   9.917   0.180
35124SOL    HW2 7380   7.691   9.931   0.048
35125SOL     OW 7381   7.670   9.592   0.995
35125SOL    HW1 7382   7.692   9.563   1.086
35125SOL    HW2 7383   7.585   9.546   0.979
35126SOL     OW 7384   7.449   9.702   0.645
35126SOL    HW1 7385   7.364   9.723   0.689
35126SOL    HW2 7386   7.425   9.622   0.596
35127SOL     OW 7387   8.023  10.581   1.182
35127SOL    HW1 7388   7.938  10.579   1.136
35127SOL    HW2 7389   8.010  10.658   1.239
35128SOL     OW 7390   9.013  10.828   0.720
35128SOL    HW1 7391   8.961  10.816   0.802
35128SOL    HW2 7392   8.946  10.828   0.650
35129SOL     OW 7393   8.570   9.995   0.711
35129SOL    HW1 7394   8.619  10.078   0.692
35129SOL    HW2 7395   8.530  10.013   0.797
35130SOL     OW 7396   9.227   9.919   0.219
35130SOL    HW1 7397   9.173   9.939   0.142
35130SOL    HW2 7398   9.175   9.854   0.268
35131SOL     OW 7399   8.179  10.458   0.994
35131SOL    HW1 7400   8.127  10.497   1.067
35131SOL    HW2 7401   8.234  10.536   0.971
35132SOL     OW 7402   8.302  10.102   1.809
35132SOL    HW1 7403   8.313  10.167   1.880
35132SOL    HW2 7404   8.337  10.149   1.731
35133SOL     OW 7405   8.173  10.445   1.793
35133SOL    HW1 7406   8.205  10.532   1.825
35133SOL    HW2 7407   8.088  10.471   1.753
35134SOL     OW 7408   7.774  10.752   1.083
35134SOL    HW1 7409   7.696  10.719   1.036
35134SOL    HW2 7410   7.822  10.802   1.015
35135SOL     OW 7411   8.910  10.797   1.382
35135SOL    HW1 7412   8.943  10.880   1.418
35135SOL    HW2 7413   8.838  10.776   1.444
35136SOL     OW 7414   7.869   9.703   1.553
35136SOL    HW1 7415   7.948   9.667   1.511
35136SOL    HW2 7416   7.796   9.656   1.508
35137SOL     OW 7417   9.061   9.776   0.742
35137SOL    HW1 7418   8.979   9.801   0.697
35137SOL    HW2 7419   9.044   9.810   0.831
35138SOL     OW 7420   8.586  10.655   1.659
35138SOL    HW1 7421   8.642  10.657   1.737
35138SOL    HW2 7422   8.539  10.570   1.672
35139SOL     OW 7423   7.709  10.757   0.525
35139SOL    HW1 7424   7.713  10.852   0.540
35139SOL    HW2 7425   7.640  10.728   0.587
35140SOL     OW 7426   7.716  10.404   0.899
35140SOL    HW1 7427   7.702  10.330   0.959
35140SOL    HW2 7428   7.662  10.475   0.940
35141SOL     OW 7429   8.019  10.305   0.121
35141SOL    HW1 7430   8.068  10.351   0.051
35141SOL    HW2 7431   8.066  10.336   0.201
35142SOL     OW 7432   9.067   9.438   1.516
35142SOL    HW1 7433   9.076   9.501   1.442
35142SOL    HW2 7434   9.044   9.498   1.588
35143SOL     OW 7435   7.579   9.954   0.559
35143SOL    HW1 7436   7.542   9.866   0.577
35143SOL    HW2 7437   7.561  10.003   0.641
35144SOL     OW 7438   7.501  10.927   0.110
35144SOL    HW1 7439   7.481  10.836   0.141
35144SOL    HW2 7440   7.490  10.977   0.192
35145SOL     OW 7441   9.141  10.223   0.645
35145SOL    HW1 7442   9.222  10.181   0.611
35145SOL    HW2 7443   9.113  10.277   0.570
35146SOL     OW 7444   9.083  10.420   0.444
35146SOL    HW1 7445   9.161  10.441   0.391
35146SOL    HW2 7446   9.097  10.476   0.524
35147SOL     OW 7447   7.559  10.049   1.576
35147SOL    HW1 7448   7.624  10.108   1.618
35147SOL    HW2 7449   7.480  10.106   1.571
35148SOL     OW 7450   8.028  10.703   0.741
35148SOL    HW1 7451   8.000  10.609   0.745
35148SOL    HW2 7452   8.011  10.724   0.648
35149SOL     OW 7453   8.743  10.534   1.420
35149SOL    HW1 7454   8.770  10.463   1.358
35149SOL    HW2 7455   8.798  10.512   1.498
35150SOL     OW 7456   8.291   9.305   0.491
35150SOL    HW1 7457   8.319   9.398   0.483
35150SOL    HW2 7458   8.194   9.316   0.499
35151SOL     OW 7459   7.635  10.281   1.249
35151SOL    HW1 7460   7.717  10.227   1.249
35151SOL    HW2 7461   7.570  10.220   1.212
35152SOL     OW 7462   9.000  10.296   0.205
35152SOL    HW1 7463   8.919  10.254   0.238
35152SOL    HW2 7464   9.035  10.336   0.286
35153SOL     OW 7465   8.627  11.097   1.627
35153SOL    HW1 7466   8.641   0.071   1.567
35153SOL    HW2 7467   8.653  11.022   1.571
35154SOL     OW 7468   7.800   9.552   1.807
35154SOL    HW1 7469   7.838   9.639   1.790
35154SOL    HW2 7470   7.710   9.576   1.836
35155SOL     OW 7471   8.923  10.739   0.968
35155SOL    HW1 7472   8.856  10.745   1.038
35155SOL    HW2 7473   8.901  10.653   0.928
35156SOL     OW 7474   8.040  10.033   0.288
35156SOL    HW1 7475   8.035  10.104   0.223
35156SOL    HW2 7476   7.963  10.046   0.345
35157SOL     OW 7477   8.714   9.635   0.899
35157SOL    HW1 7478   8.627   9.610   0.935
35157SOL    HW2 7479   8.775   9.601   0.968
35158SOL     OW 7480   9.021  10.960   0.325
35158SOL    HW1 7481   9.099  11.017   0.329
35158SOL    HW2 7482   9.000  10.959   0.230
35159SOL     OW 7483   8.234   9.939   1.465
35159SOL    HW1 7484   8.232   9.888   1.547
35159SOL    HW2 7485   8.192   9.878   1.402
35160SOL     OW 7486   8.830   9.788   1.675
35160SOL    HW1 7487   8.846   9.842   1.754
35160SOL    HW2 7488   8.888   9.711   1.689
35161SOL     OW 7489   8.408  10.201   1.580
35161SOL    HW1 7490   8.460  10.124   1.550
35161SOL    HW2 7491   8.366  10.228   1.497
35162SOL     OW 7492   8.374   9.739   1.217
35162SOL    HW1 7493   8.425   9.719   1.296
35162SOL    HW2 7494   8.405   9.673   1.155
35163SOL     OW 7495   8.489   9.996   0.410
35163SOL    HW1 7496   8.510  10.006   0.504
35163SOL    HW2 7497   8.406   9.946   0.412
35164SOL     OW 7498   7.551  10.120   0.776
35164SOL    HW1 7499   7.616  10.121   0.849
35164SOL    HW2 7500   7.485  10.184   0.805
35165SOL     OW 7501   7.514   0.067   1.586
35165SOL    HW1 7502   7.546   0.031   1.671
35165SOL    HW2 7503   7.418   0.053   1.592
35166SOL     OW 7504   8.329   9.694   0.202
35166SOL    HW1 7505   8.384   9.744   0.138
35166SOL    HW2 7506   8.344   9.601   0.174
35167SOL     OW 7507   9.164   9.882   1.837
35167SOL    HW1 7508   9.131   9.960   1.789
35167SOL    HW2 7509   9.195   9.827   1.763
35168SOL     OW 7510   8.810  10.458   0.571
35168SOL    HW1 7511   8.896  10.455   0.525
35168SOL    HW2 7512   8.759  10.520   0.515
35169SOL     OW 7513   8.004   9.497   0.902
35169SOL    HW1 7514   8.013   9.524   0.996
35169SOL    HW2 7515   8.005   9.580   0.854
35170SOL     OW 7516   8.431  10.750   0.475
35170SOL    HW1 7517   8.356  10.795   0.434
35170SOL    HW2 7518   8.420  10.776   0.568
35171SOL     OW 7519   7.790   0.007   0.896
35171SOL    HW1 7520   7.849  11.031   0.905
35171SOL    HW2 7521   7.854   0.082   0.894
35172SOL     OW 7522   9.248  10.405   0.890
35172SOL    HW1 7523   9.201  10.370   0.813
35172SOL    HW2 7524   9.187  10.383   0.963
35173SOL     OW 7525   8.660  10.868   1.497
35173SOL    HW1 7526   8.646  10.788   1.551
35173SOL    HW2 7527   8.605  10.847   1.420
35174SOL     OW 7528   7.767  10.273   0.266
35174SOL    HW1 7529   7.836  10.297   0.202
35174SOL    HW2 7530   7.728  10.194   0.226
35175SOL     OW 7531   8.918  10.058   0.725
35175SOL    HW1 7532   8.916  10.011   0.810
35175SOL    HW2 7533   8.999  10.111   0.732
35176SOL     OW 7534   7.919  10.535   1.716
35176SOL    HW1 7535   7.871  10.552   1.632
35176SOL    HW2 7536   7.850  10.562   1.780
35177SOL     OW 7537   8.515  11.060   0.208
35177SOL    HW1 7538   8.495  11.008   0.287
35177SOL    HW2 7539   8.565  10.997   0.154
35178SOL     OW 7540   7.628   9.598   1.492
35178SOL    HW1 7541   7.551   9.656   1.497
35178SOL    HW2 7542   7.595   9.514   1.529
35179SOL     OW 7543   9.081  10.693   0.083
35179SOL    HW1 7544   9.034  10.779   0.081
35179SOL    HW2 7545   9.018  10.634   0.039
35180SOL     OW 7546   8.849   9.432   0.442
35180SOL    HW1 7547   8.857   9.378   0.362
35180SOL    HW2 7548   8.942   9.455   0.461
35181SOL     OW 7549   7.852   9.990   0.486
35181SOL    HW1 7550   7.870   9.893   0.493
35181SOL    HW2 7551   7.757   9.990   0.509
35182SOL     OW 7552   8.982   9.579   1.727
35182SOL    HW1 7553   8.981   9.577   1.825
35182SOL    HW2 7554   8.931   9.499   1.706
35183SOL     OW 7555   8.066   9.415   0.100
35183SOL    HW1 7556   8.160   9.399   0.119
35183SOL    HW2 7557   8.058   9.399   0.006
35184SOL     OW 7558   8.200   9.554   1.752
35184SOL    HW1 7559   8.291   9.517   1.753
35184SOL    HW2 7560   8.216   9.647   1.774
35185SOL     OW 7561   8.346  10.849   1.168
35185SOL    HW1 7562   8.328  10.801   1.084
35185SOL    HW2 7563   8.397  10.785   1.220
35186SOL     OW 7564   8.787   9.903   1.438
35186SOL    HW1 7565   8.822   9.862   1.520
35186SOL    HW2 7566   8.863   9.954   1.406
35187SOL     OW 7567   8.292  10.702   0.941
35187SOL    HW1 7568   8.379  10.698   0.897
35187SOL    HW2 7569   8.234  10.722   0.866
35188SOL     OW 7570   8.404   9.822   0.901
35188SOL    HW1 7571   8.382   9.800   0.807
35188SOL    HW2 7572   8.426   9.735   0.937
35189SOL     OW 7573   8.024   9.356   0.504
35189SOL    HW1 7574   7.944   9.363   0.560
35189SOL    HW2 7575   8.011   9.434   0.446
35190SOL     OW 7576   8.885  10.502   0.010
35190SOL    HW1 7577   8.931  10.439   0.068
35190SOL    HW2 7578   8.804  10.522   0.060
35191SOL     OW 7579   7.723   9.387   0.223
35191SOL    HW1 7580   7.755   9.437   0.146
35191SOL    HW2 7581   7.798   9.327   0.241
35192SOL     OW 7582   8.386   9.562   0.462
35192SOL    HW1 7583   8.369   9.609   0.379
35192SOL    HW2 7584   8.481   9.579   0.476
35193SOL     OW 7585   8.545   9.995   1.473
35193SOL    HW1 7586   8.506   9.911   1.497
35193SOL    HW2 7587   8.640   9.970   1.462
35194SOL     OW 7588   8.692  10.876   0.805
35194SOL    HW1 7589   8.649  10.952   0.763
35194SOL    HW2 7590   8.761  10.918   0.858
35195SOL     OW 7591   7.928  10.443   0.735
35195SOL    HW1 7592   7.853  10.437   0.797
35195SOL    HW2 7593   7.881  10.439   0.648
35196SOL     OW 7594   8.481   9.829   0.030
35196SOL    HW1 7595   8.454   9.921   0.024
35196SOL    HW2 7596   8.573   9.836   0.058
35197SOL     OW 7597   7.527   9.856   1.396
35197SOL    HW1 7598   7.622   9.843   1.377
35197SOL    HW2 7599   7.529   9.936   1.453
35198SOL     OW 7600   8.021   9.546   1.171
35198SOL    HW1 7601   8.068   9.471   1.211
35198SOL    HW2 7602   7.929   9.531   1.200
35199SOL     OW 7603   8.326   9.760   0.644
35199SOL    HW1 7604   8.286   9.807   0.570
35199SOL    HW2 7605   8.339   9.672   0.604
35200SOL     OW 7606   8.392   9.396   0.783
35200SOL    HW1 7607   8.396   9.360   0.694
35200SOL    HW2 7608   8.402   9.317   0.839
35201SOL     OW 7609   8.872  10.495   0.875
35201SOL    HW1 7610   8.812  10.420   0.886
35201SOL    HW2 7611   8.883  10.496   0.778
35202SOL     OW 7612   8.927   9.877   0.975
35202SOL    HW1 7613   8.864   9.814   1.014
35202SOL    HW2 7614   8.989   9.891   1.050
35203SOL     OW 7615   9.306  10.158   0.378
35203SOL    HW1 7616   9.352  10.096   0.438
35203SOL    HW2 7617   9.277  10.097   0.309
35204SOL     OW 7618   7.928  10.748   0.153
35204SOL    HW1 7619   7.855  10.713   0.207
35204SOL    HW2 7620   7.924  10.693   0.073
35205SOL     OW 7621   9.117  10.570   0.658
35205SOL    HW1 7622   9.212  10.584   0.674
35205SOL    HW2 7623   9.080  10.657   0.682
35206SOL     OW 7624   8.831   9.918   0.087
35206SOL    HW1 7625   8.788   9.878   0.166
35206SOL    HW2 7626   8.896   9.852   0.062
35207SOL     OW 7627   7.962   9.537   0.316
35207SOL    HW1 7628   7.983   9.488   0.234
35207SOL    HW2 7629   7.938   9.624   0.279
35208SOL     OW 7630   9.185  10.518   1.599
35208SOL    HW1 7631   9.275  10.483   1.592
35208SOL    HW2 7632   9.201  10.613   1.611
35209SOL     OW 7633   8.512  10.678   1.350
35209SOL    HW1 7634   8.435  10.638   1.393
35209SOL    HW2 7635   8.586  10.626   1.387
35210SOL     OW 7636   9.037  10.976   1.648
35210SOL    HW1 7637   9.045  11.048   1.583
35210SOL    HW2 7638   9.122  10.929   1.639
35211SOL     OW 7639   8.548  10.506   1.105
35211SOL    HW1 7640   8.508  10.565   1.170
35211SOL    HW2 7641   8.539  10.556   1.022
35212SOL     OW 7642   9.048  10.398   1.078
35212SOL    HW1 7643   9.054  10.461   1.153
35212SOL    HW2 7644   8.990  10.446   1.016
35213SOL     OW 7645   8.347   9.420   1.367
35213SOL    HW1 7646   8.384   9.382   1.285
35213SOL    HW2 7647   8.428   9.454   1.410
35214SOL     OW 7648   8.454  10.436   1.744
35214SOL    HW1 7649   8.359  10.450   1.761
35214SOL    HW2 7650   8.452  10.358   1.685
35215SOL     OW 7651   8.164  10.383   0.333
35215SOL    HW1 7652   8.131  10.330   0.407
35215SOL    HW2 7653   8.254  10.345   0.321
35216SOL     OW 7654   7.861  10.116   1.260
35216SOL    HW1 7655   7.932  10.124   1.328
35216SOL    HW2 7656   7.834  10.023   1.270
35217SOL     OW 7657   8.738   9.709   1.246
35217SOL    HW1 7658   8.765   9.780   1.307
35217SOL    HW2 7659   8.699   9.645   1.307
35218SOL     OW 7660   7.502  10.888   1.345
35218SOL    HW1 7661   7.476  10.949   1.275
35218SOL    HW2 7662   7.599  10.894   1.346
35219SOL     OW 7663   7.814  10.409   0.496
35219SOL    HW1 7664   7.808  10.494   0.449
35219SOL    HW2 7665   7.795  10.345   0.425
35220SOL     OW 7666   7.984   9.852   0.844
35220SOL    HW1 7667   8.020   9.909   0.776
35220SOL    HW2 7668   8.049   9.861   0.916
35221SOL     OW 7669   8.677  10.652   0.407
35221SOL    HW1 7670   8.733  10.724   0.441
35221SOL    HW2 7671   8.588  10.683   0.433
35222SOL     OW 7672   8.748  10.763   1.172
35222SOL    HW1 7673   8.808  10.783   1.247
35222SOL    HW2 7674   8.706  10.681   1.200
35223SOL     OW 7675   9.016   9.938   0.477
35223SOL    HW1 7676   8.980   9.977   0.558
35223SOL    HW2 7677   9.038  10.015   0.424
35224SOL     OW 7678   7.785  10.824   1.338
35224SOL    HW1 7679   7.773  10.793   1.245
35224SOL    HW2 7680   7.876  10.856   1.334
35225SOL     OW 7681   7.894  10.067   1.658
35225SOL    HW1 7682   7.950  10.104   1.586
35225SOL    HW2 7683   7.885   9.975   1.629
35226SOL     OW 7684   9.077  10.088   1.691
35226SOL    HW1 7685   8.983  10.112   1.685
35226SOL    HW2 7686   9.112  10.127   1.609
35227SOL     OW 7687   8.439   9.436   1.751
35227SOL    HW1 7688   8.484   9.497   1.692
35227SOL    HW2 7689   8.492   9.356   1.734
35228SOL     OW 7690   8.007  10.226   1.017
35228SOL    HW1 7691   8.062  10.299   1.050
35228SOL    HW2 7692   7.962  10.196   1.097
35229SOL     OW 7693   8.804  10.184   1.016
35229SOL    HW1 7694   8.741  10.133   0.964
35229SOL    HW2 7695   8.865  10.116   1.046
35230SOL     OW 7696   8.680   9.824   0.285
35230SOL    HW1 7697   8.687   9.752   0.351
35230SOL    HW2 7698   8.617   9.884   0.328
35231SOL     OW 7699   7.757   9.514   1.246
35231SOL    HW1 7700   7.708   9.540   1.326
35231SOL    HW2 7701   7.739   9.418   1.242
35232SOL     OW 7702   7.482  10.617   1.271
35232SOL    HW1 7703   7.512  10.563   1.345
35232SOL    HW2 7704   7.482  10.707   1.307
35233SOL     OW 7705   8.162   9.932   1.044
35233SOL    HW1 7706   8.252   9.897   1.026
35233SOL    HW2 7707   8.174  10.027   1.044
35234SOL     OW 7708   9.223  10.265   1.847
35234SOL    HW1 7709   9.188  10.198   1.786
35234SOL    HW2 7710   9.147  10.276   1.906
35235SOL     OW 7711   7.787   9.384   0.621
35235SOL    HW1 7712   7.749   9.470   0.646
35235SOL    HW2 7713   7.773   9.333   0.704
35236SOL     OW 7714   9.041   9.694   0.373
35236SOL    HW1 7715   9.077   9.636   0.441
35236SOL    HW2 7716   9.030   9.779   0.422
35237SOL     OW 7717   8.479  10.069   0.979
35237SOL    HW1 7718   8.482  10.081   1.075
35237SOL    HW2 7719   8.469   9.973   0.969
35238SOL     OW 7720   8.434  10.864   1.712
35238SOL    HW1 7721   8.450  10.927   1.641
35238SOL    HW2 7722   8.471  10.780   1.677
35239SOL     OW 7723   9.280  10.834   1.606
35239SOL    HW1 7724   9.309  10.856   1.515
35239SOL    HW2 7725   9.365  10.834   1.654
35240SOL     OW 7726   8.975   9.585   0.112
35240SOL    HW1 7727   8.909   9.524   0.147
35240SOL    HW2 7728   9.016   9.618   0.193
35241SOL     OW 7729   8.731  10.159   0.026
35241SOL    HW1 7730   8.773  10.074   0.052
35241SOL    HW2 7731   8.746  10.157  11.032
35242SOL     OW 7732   8.538  10.636   0.851
35242SOL    HW1 7733   8.541  10.560   0.790
35242SOL    HW2 7734   8.608  10.696   0.819
35243SOL     OW 7735   7.728  10.110   0.987
35243SOL    HW1 7736   7.820  10.132   0.964
35243SOL    HW2 7737   7.736  10.018   1.017
35244SOL     OW 7738   7.775   9.839   1.013
35244SOL    HW1 7739   7.747   9.745   1.005
35244SOL    HW2 7740   7.839   9.846   0.939
35245SOL     OW 7741   8.523   9.745   1.667
35245SOL    HW1 7742   8.570   9.753   1.750
35245SOL    HW2 7743   8.585   9.694   1.612
35246SOL     OW 7744   7.448  10.669   0.210
35246SOL    HW1 7745   7.361  10.681   0.164
35246SOL    HW2 7746   7.455  10.572   0.212
35247SOL     OW 7747   7.959  10.901   0.920
35247SOL    HW1 7748   8.046  10.941   0.928
35247SOL    HW2 7749   7.976  10.833   0.852
35248SOL     OW 7750   8.424  10.114   1.263
35248SOL    HW1 7751   8.486  10.076   1.330
35248SOL    HW2 7752   8.350  10.052   1.272
35249SOL     OW 7753   7.478   9.845   1.111
35249SOL    HW1 7754   7.556   9.827   1.057
35249SOL    HW2 7755   7.515   9.856   1.200
35250SOL     OW 7756   7.673   9.830   1.716
35250SOL    HW1 7757   7.726   9.782   1.649
35250SOL    HW2 7758   7.615   9.885   1.661
35251SOL     OW 7759   8.828  10.222   1.654
35251SOL    HW1 7760   8.865  10.312   1.651
35251SOL    HW2 7761   8.830  10.196   1.560
35252SOL     OW 7762   8.245   9.874   0.387
35252SOL    HW1 7763   8.266   9.807   0.319
35252SOL    HW2 7764   8.176   9.926   0.343
35253SOL     OW 7765   7.668  10.837   1.737
35253SOL    HW1 7766   7.657  10.916   1.791
35253SOL    HW2 7767   7.686  10.768   1.803
35254SOL     OW 7768   8.072   9.808   1.271
35254SOL    HW1 7769   8.076   9.715   1.242
35254SOL    HW2 7770   8.113   9.853   1.194
35255SOL     OW 7771   7.902   9.779   0.206
35255SOL    HW1 7772   7.966   9.851   0.211
35255SOL    HW2 7773   7.818   9.827   0.199
35256SOL     OW 7774   7.570  10.435   1.465
35256SOL    HW1 7775   7.605  10.383   1.539
35256SOL    HW2 7776   7.589  10.378   1.388
35257SOL     OW 7777   8.773  10.344   1.234
35257SOL    HW1 7778   8.793  10.290   1.155
35257SOL    HW2 7779   8.692  10.388   1.206
35258SOL     OW 7780   8.761  10.177   0.313
35258SOL    HW1 7781   8.687  10.129   0.352
35258SOL    HW2 7782   8.737  10.184   0.220
35259SOL     OW 7783   9.215  11.035   1.164
35259SOL    HW1 7784   9.255  11.063   1.080
35259SOL    HW2 7785   9.194  10.941   1.145
35260SOL     OW 7786   8.694  11.032   1.098
35260SOL    HW1 7787   8.779  11.053   1.057
35260SOL    HW2 7788   8.704  10.937   1.118
35261SOL     OW 7789   7.554  10.576   1.019
35261SOL    HW1 7790   7.518  10.588   1.109
35261SOL    HW2 7791   7.480  10.532   0.973
35262SOL     OW 7792   8.138  10.949   1.722
35262SOL    HW1 7793   8.077  11.023   1.735
35262SOL    HW2 7794   8.209  10.989   1.670
35263SOL     OW 7795   8.353   9.424   0.144
35263SOL    HW1 7796   8.409   9.388   0.074
35263SOL    HW2 7797   8.382   9.367   0.216
35264SOL     OW 7798   9.134   9.465   0.516
35264SOL    HW1 7799   9.204   9.446   0.452
35264SOL    HW2 7800   9.128   9.382   0.566
35265SOL     OW 7801   8.833  10.862   0.490
35265SOL    HW1 7802   8.909  10.874   0.428
35265SOL    HW2 7803   8.798  10.952   0.493
35266SOL     OW 7804   7.591  11.095   1.837
35266SOL    HW1 7805   7.535  11.029   1.881
35266SOL    HW2 7806   7.636   0.030   1.915
35267SOL     OW 7807   8.711  10.214   0.641
35267SOL    HW1 7808   8.793  10.165   0.662
35267SOL    HW2 7809   8.748  10.295   0.599
35268SOL     OW 7810   8.262  10.584   1.431
35268SOL    HW1 7811   8.226  10.628   1.511
35268SOL    HW2 7812   8.186  10.593   1.371
35269SOL     OW 7813   8.146  10.895   0.146
35269SOL    HW1 7814   8.118  10.941   0.067
35269SOL    HW2 7815   8.066  10.843   0.169
35270SOL     OW 7816   9.294   9.466   0.960
35270SOL    HW1 7817   9.303   9.371   0.943
35270SOL    HW2 7818   9.206   9.487   0.922
35271SOL     OW 7819   7.702   9.631   0.703
35271SOL    HW1 7820   7.614   9.668   0.685
35271SOL    HW2 7821   7.706   9.636   0.800
35272SOL     OW 7822   8.669  10.908   0.041
35272SOL    HW1 7823   8.691  10.817   0.066
35272SOL    HW2 7824   8.598  10.893  11.076
35273SOL     OW 7825   8.260  10.317   1.350
35273SOL    HW1 7826   8.326  10.277   1.292
35273SOL    HW2 7827   8.287  10.410   1.358
35274SOL     OW 7828   8.382  10.247   0.294
35274SOL    HW1 7829   8.436  10.268   0.215
35274SOL    HW2 7830   8.409  10.156   0.315
35275SOL     OW 7831   8.958  10.926   0.060
35275SOL    HW1 7832   8.862  10.932   0.056
35275SOL    HW2 7833   8.988  10.974  11.084
35276SOL     OW 7834   7.792  10.586   1.491
35276SOL    HW1 7835   7.779  10.669   1.443
35276SOL    HW2 7836   7.712  10.536   1.469
35277SOL     OW 7837   9.050  10.592   1.280
35277SOL    HW1 7838   9.095  10.565   1.361
35277SOL    HW2 7839   8.991  10.662   1.313
35278SOL     OW 7840   8.494  10.397   0.723
35278SOL    HW1 7841   8.426  10.334   0.753
35278SOL    HW2 7842   8.560  10.341   0.682
35279SOL     OW 7843   8.476   9.548   0.995
35279SOL    HW1 7844   8.442   9.509   0.912
35279SOL    HW2 7845   8.479   9.469   1.052
35280SOL     OW 7846   8.057  10.829   0.483
35280SOL    HW1 7847   8.088  10.771   0.411
35280SOL    HW2 7848   8.018  10.903   0.436
35281SOL     OW 7849   9.145   9.661   1.384
35281SOL    HW1 7850   9.145   9.752   1.348
35281SOL    HW2 7851   9.203   9.615   1.320
35282SOL     OW 7852   7.709  10.656   0.284
35282SOL    HW1 7853   7.614  10.666   0.264
35282SOL    HW2 7854   7.713  10.699   0.372
35283SOL     OW 7855   7.595  10.298   1.749
35283SOL    HW1 7856   7.498  10.291   1.737
35283SOL    HW2 7857   7.595  10.321   1.842
35284SOL     OW 7858   8.118   9.479   1.501
35284SOL    HW1 7859   8.202   9.461   1.454
35284SOL    HW2 7860   8.148   9.525   1.581
35285SOL     OW 7861   7.560   9.696   0.007
35285SOL    HW1 7862   7.485   9.642  11.078
35285SOL    HW2 7863   7.537   9.780  11.068
35286SOL     OW 7864   8.907  10.164   1.401
35286SOL    HW1 7865   8.879  10.231   1.337
35286SOL    HW2 7866   8.994  10.137   1.367
35287SOL     OW 7867   7.490   9.477   0.330
35287SOL    HW1 7868   7.487   9.560   0.282
35287SOL    HW2 7869   7.580   9.445   0.308
35288SOL     OW 7870   8.641  10.617   0.127
35288SOL    HW1 7871   8.546  10.612   0.117
35288SOL    HW2 7872   8.653  10.617   0.224
35289SOL     OW 7873   8.068  10.143   1.428
35289SOL    HW1 7874   8.128  10.217   1.405
35289SOL    HW2 7875   8.133  10.071   1.439
35290SOL     OW 7876   8.946  11.059   0.956
35290SOL    HW1 7877   8.972   0.012   0.880
35290SOL    HW2 7878   9.030  11.049   1.001
35291SOL     OW 7879   8.224   9.839   1.729
35291SOL    HW1 7880   8.220   9.927   1.771
35291SOL    HW2 7881   8.319   9.832   1.708
35292SOL     OW 7882   8.920  10.474   1.635
35292SOL    HW1 7883   8.907  10.484   1.732
35292SOL    HW2 7884   9.015  10.493   1.627
35293SOL     OW 7885   9.168  10.224   1.248
35293SOL    HW1 7886   9.148  10.130   1.228
35293SOL    HW2 7887   9.123  10.272   1.176
35294SOL     OW 7888   8.662   9.637   0.482
35294SOL    HW1 7889   8.724   9.563   0.465
35294SOL    HW2 7890   8.704   9.683   0.558
35295SOL     OW 7891   8.044  10.092   0.654
35295SOL    HW1 7892   8.111  10.047   0.600
35295SOL    HW2 7893   7.963  10.070   0.604
35296SOL     OW 7894   9.223   9.681   1.646
35296SOL    HW1 7895   9.207   9.689   1.550
35296SOL    HW2 7896   9.142   9.637   1.675
35297SOL     OW 7897   9.196  10.233   1.505
35297SOL    HW1 7898   9.176  10.327   1.509
35297SOL    HW2 7899   9.202  10.219   1.408
35298SOL     OW 7900   8.323  10.693   0.062
35298SOL    HW1 7901   8.251  10.742   0.106
35298SOL    HW2 7902   8.361  10.761   0.005
35299SOL     OW 7903   8.312  10.246   0.854
35299SOL    HW1 7904   8.373  10.181   0.894
35299SOL    HW2 7905   8.317  10.318   0.919
35300SOL     OW 7906   8.493  10.297   0.058
35300SOL    HW1 7907   8.487  10.334  11.070
35300SOL    HW2 7908   8.582  10.258   0.057
35301SOL     OW 7909   9.266  10.908   0.838
35301SOL    HW1 7910   9.187  10.878   0.789
35301SOL    HW2 7911   9.282  10.837   0.900
35302SOL     OW 7912   7.707  10.605   1.876
35302SOL    HW1 7913   7.619  10.582   1.843
35302SOL    HW2 7914   7.693  10.604   1.972
35303SOL     OW 7915   7.538  10.566   0.649
35303SOL    HW1 7916   7.545  10.514   0.729
35303SOL    HW2 7917   7.578  10.509   0.582
35304SOL     OW 7918   8.116  10.700   1.618
35304SOL    HW1 7919   8.039  10.652   1.651
35304SOL    HW2 7920   8.108  10.787   1.662
35305SOL     OW 7921   9.285   9.478   1.225
35305SOL    HW1 7922   9.259   9.388   1.245
35305SOL    HW2 7923   9.288   9.476   1.128
35306SOL     OW 7924   7.900   9.717   0.528
35306SOL    HW1 7925   7.919   9.641   0.470
35306SOL    HW2 7926   7.840   9.679   0.595
35307SOL     OW 7927   9.161  10.781   1.093
35307SOL    HW1 7928   9.074  10.766   1.051
35307SOL    HW2 7929   9.168  10.705   1.153
35308SOL     OW 7930   7.788   9.846   1.287
35308SOL    HW1 7931   7.878   9.821   1.314
35308SOL    HW2 7932   7.790   9.824   1.192
35309SOL     OW 7933   8.263  10.879   0.696
35309SOL    HW1 7934   8.271  10.960   0.641
35309SOL    HW2 7935   8.175  10.846   0.672
35310SOL     OW 7936   8.882   9.542   1.081
35310SOL    HW1 7937   8.917   9.473   1.139
35310SOL    HW2 7938   8.840   9.601   1.147
35311SOL     OW 7939   8.455   9.312   1.139
35311SOL    HW1 7940   8.413   9.242   1.086
35311SOL    HW2 7941   8.547   9.276   1.147
35312SOL     OW 7942   8.192  10.649   0.327
35312SOL    HW1 7943   8.159  10.559   0.315
35312SOL    HW2 7944   8.287  10.634   0.325
35313SOL     OW 7945   8.061  10.882   1.291
35313SOL    HW1 7946   8.082  10.970   1.323
35313SOL    HW2 7947   8.144  10.854   1.251
35314SOL     OW 7948   8.771   9.336   0.166
35314SOL    HW1 7949   8.785   9.294   0.081
35314SOL    HW2 7950   8.682   9.302   0.190
35315SOL     OW 7951   8.758   9.793   0.691
35315SOL    HW1 7952   8.688   9.860   0.700
35315SOL    HW2 7953   8.746   9.741   0.773
35316SOL     OW 7954   9.052   9.517   0.853
35316SOL    HW1 7955   8.985   9.529   0.923
35316SOL    HW2 7956   9.043   9.599   0.801
35317SOL     OW 7957   7.495  10.404   0.267
35317SOL    HW1 7958   7.591  10.393   0.269
35317SOL    HW2 7959   7.466  10.315   0.292
35318SOL     OW 7960   7.686   9.967   1.974
35318SOL    HW1 7961   7.599   9.946   2.013
35318SOL    HW2 7962   7.684   9.920   1.889
35319SOL     OW 7963   7.687   9.584   2.845
35319SOL    HW1 7964   7.706   9.566   2.939
35319SOL    HW2 7965   7.597   9.547   2.838
35320SOL     OW 7966   7.448   9.711   2.491
35320SOL    HW1 7967   7.366   9.731   2.540
35320SOL    HW2 7968   7.420   9.633   2.441
35321SOL     OW 7969   8.019  10.578   3.030
35321SOL    HW1 7970   7.932  10.569   2.989
35321SOL    HW2 7971   8.012  10.668   3.067
35322SOL     OW 7972   8.993  10.842   2.569
35322SOL    HW1 7973   8.938  10.828   2.649
35322SOL    HW2 7974   8.929  10.844   2.496
35323SOL     OW 7975   8.578   9.987   2.570
35323SOL    HW1 7976   8.619  10.073   2.549
35323SOL    HW2 7977   8.541  10.005   2.658
35324SOL     OW 7978   9.223   9.913   2.095
35324SOL    HW1 7979   9.200   9.900   2.000
35324SOL    HW2 7980   9.179   9.837   2.135
35325SOL     OW 7981   8.197  10.454   2.870
35325SOL    HW1 7982   8.135  10.490   2.936
35325SOL    HW2 7983   8.236  10.538   2.838
35326SOL     OW 7984   8.263  10.159   3.676
35326SOL    HW1 7985   8.320  10.112   3.737
35326SOL    HW2 7986   8.318  10.168   3.596
35327SOL     OW 7987   8.139  10.323   2.497
35327SOL    HW1 7988   8.205  10.305   2.566
35327SOL    HW2 7989   8.072  10.375   2.546
35328SOL     OW 7990   8.175  10.461   3.657
35328SOL    HW1 7991   8.197  10.548   3.694
35328SOL    HW2 7992   8.081  10.471   3.634
35329SOL     OW 7993   7.774  10.749   2.946
35329SOL    HW1 7994   7.699  10.711   2.896
35329SOL    HW2 7995   7.825  10.798   2.879
35330SOL     OW 7996   8.908  10.803   3.243
35330SOL    HW1 7997   8.929  10.897   3.256
35330SOL    HW2 7998   8.842  10.787   3.312
35331SOL     OW 7999   7.873   9.700   3.396
35331SOL    HW1 8000   7.952   9.644   3.386
35331SOL    HW2 8001   7.802   9.646   3.358
35332SOL     OW 8002   9.070   9.761   2.602
35332SOL    HW1 8003   9.004   9.792   2.537
35332SOL    HW2 8004   9.044   9.812   2.680
35333SOL     OW 8005   8.584  10.663   3.550
35333SOL    HW1 8006   8.617  10.653   3.640
35333SOL    HW2 8007   8.539  10.577   3.539
35334SOL     OW 8008   7.695  10.763   2.379
35334SOL    HW1 8009   7.707  10.852   2.416
35334SOL    HW2 8010   7.639  10.719   2.445
35335SOL     OW 8011   7.721  10.401   2.754
35335SOL    HW1 8012   7.718  10.327   2.817
35335SOL    HW2 8013   7.671  10.470   2.800
35336SOL     OW 8014   8.019  10.299   1.963
35336SOL    HW1 8015   8.081  10.339   1.898
35336SOL    HW2 8016   8.056  10.336   2.046
35337SOL     OW 8017   9.058   9.424   3.357
35337SOL    HW1 8018   9.049   9.503   3.302
35337SOL    HW2 8019   9.063   9.462   3.446
35338SOL     OW 8020   7.557   9.968   2.420
35338SOL    HW1 8021   7.530   9.876   2.438
35338SOL    HW2 8022   7.554  10.008   2.509
35339SOL     OW 8023   7.493  10.905   1.999
35339SOL    HW1 8024   7.466  10.812   2.006
35339SOL    HW2 8025   7.439  10.949   2.064
35340SOL     OW 8026   9.137  10.236   2.524
35340SOL    HW1 8027   9.193  10.179   2.469
35340SOL    HW2 8028   9.102  10.297   2.458
35341SOL     OW 8029   9.101  10.426   2.315
35341SOL    HW1 8030   9.192  10.421   2.281
35341SOL    HW2 8031   9.109  10.495   2.384
35342SOL     OW 8032   7.569  10.048   3.447
35342SOL    HW1 8033   7.661  10.075   3.464
35342SOL    HW2 8034   7.522  10.130   3.467
35343SOL     OW 8035   8.032  10.709   2.615
35343SOL    HW1 8036   8.005  10.616   2.632
35343SOL    HW2 8037   8.022  10.713   2.518
35344SOL     OW 8038   8.749  10.549   3.289
35344SOL    HW1 8039   8.774  10.479   3.227
35344SOL    HW2 8040   8.796  10.524   3.370
35345SOL     OW 8041   8.288   9.302   2.367
35345SOL    HW1 8042   8.319   9.394   2.356
35345SOL    HW2 8043   8.192   9.315   2.379
35346SOL     OW 8044   7.633  10.301   3.124
35346SOL    HW1 8045   7.720  10.257   3.117
35346SOL    HW2 8046   7.575  10.242   3.074
35347SOL     OW 8047   8.984  10.304   2.071
35347SOL    HW1 8048   8.907  10.254   2.106
35347SOL    HW2 8049   9.031  10.329   2.153
35348SOL     OW 8050   8.649   0.006   3.491
35348SOL    HW1 8051   8.647   0.073   3.420
35348SOL    HW2 8052   8.665  11.026   3.442
35349SOL     OW 8053   7.784   9.541   3.686
35349SOL    HW1 8054   7.851   9.609   3.675
35349SOL    HW2 8055   7.709   9.591   3.722
35350SOL     OW 8056   8.923  10.733   2.822
35350SOL    HW1 8057   8.858  10.736   2.895
35350SOL    HW2 8058   8.900  10.648   2.779
35351SOL     OW 8059   8.033  10.020   2.118
35351SOL    HW1 8060   8.054  10.106   2.080
35351SOL    HW2 8061   7.973  10.041   2.192
35352SOL     OW 8062   8.725   9.643   2.770
35352SOL    HW1 8063   8.635   9.614   2.794
35352SOL    HW2 8064   8.778   9.602   2.842
35353SOL     OW 8065   9.028  10.947   2.171
35353SOL    HW1 8066   9.068  11.029   2.200
35353SOL    HW2 8067   9.023  10.957   2.074
35354SOL     OW 8068   8.253   9.931   3.320
35354SOL    HW1 8069   8.235   9.895   3.409
35354SOL    HW2 8070   8.198   9.874   3.263
35355SOL     OW 8071   8.852   9.788   3.540
35355SOL    HW1 8072   8.849   9.843   3.620
35355SOL    HW2 8073   8.911   9.715   3.566
35356SOL     OW 8074   8.408  10.198   3.445
35356SOL    HW1 8075   8.444  10.114   3.410
35356SOL    HW2 8076   8.364  10.235   3.366
35357SOL     OW 8077   8.416   9.720   3.100
35357SOL    HW1 8078   8.331   9.723   3.145
35357SOL    HW2 8079   8.396   9.674   3.018
35358SOL     OW 8080   8.477  10.021   2.278
35358SOL    HW1 8081   8.495  10.027   2.373
35358SOL    HW2 8082   8.400   9.960   2.276
35359SOL     OW 8083   7.553  10.120   2.646
35359SOL    HW1 8084   7.621  10.128   2.715
35359SOL    HW2 8085   7.490  10.189   2.672
35360SOL     OW 8086   7.571   0.050   3.453
35360SOL    HW1 8087   7.556   0.030   3.548
35360SOL    HW2 8088   7.486   0.029   3.413
35361SOL     OW 8089   8.332   9.692   2.059
35361SOL    HW1 8090   8.377   9.760   2.005
35361SOL    HW2 8091   8.377   9.613   2.030
35362SOL     OW 8092   9.164   9.890   3.705
35362SOL    HW1 8093   9.127   9.970   3.661
35362SOL    HW2 8094   9.186   9.836   3.628
35363SOL     OW 8095   8.810  10.453   2.415
35363SOL    HW1 8096   8.889  10.454   2.359
35363SOL    HW2 8097   8.754  10.520   2.371
35364SOL     OW 8098   8.005   9.490   2.749
35364SOL    HW1 8099   8.017   9.514   2.843
35364SOL    HW2 8100   7.985   9.575   2.707
35365SOL     OW 8101   8.437  10.770   2.342
35365SOL    HW1 8102   8.368  10.815   2.292
35365SOL    HW2 8103   8.413  10.791   2.434
35366SOL     OW 8104   7.799  11.099   2.744
35366SOL    HW1 8105   7.858  11.024   2.763
35366SOL    HW2 8106   7.862   0.073   2.744
35367SOL     OW 8107   9.255  10.385   2.752
35367SOL    HW1 8108   9.213  10.360   2.668
35367SOL    HW2 8109   9.179  10.377   2.813
35368SOL     OW 8110   8.659  10.863   3.366
35368SOL    HW1 8111   8.658  10.783   3.420
35368SOL    HW2 8112   8.606  10.835   3.290
35369SOL     OW 8113   7.752  10.244   2.068
35369SOL    HW1 8114   7.839  10.258   2.106
35369SOL    HW2 8115   7.732  10.151   2.089
35370SOL     OW 8116   8.924  10.068   2.591
35370SOL    HW1 8117   8.929  10.023   2.677
35370SOL    HW2 8118   9.004  10.124   2.593
35371SOL     OW 8119   7.933  10.567   3.580
35371SOL    HW1 8120   7.885  10.577   3.495
35371SOL    HW2 8121   7.860  10.570   3.644
35372SOL     OW 8122   8.530  11.075   2.117
35372SOL    HW1 8123   8.459  11.029   2.161
35372SOL    HW2 8124   8.542  11.027   2.033
35373SOL     OW 8125   7.617   9.594   3.341
35373SOL    HW1 8126   7.558   9.660   3.379
35373SOL    HW2 8127   7.597   9.514   3.391
35374SOL     OW 8128   9.077  10.691   1.956
35374SOL    HW1 8129   9.033  10.777   1.947
35374SOL    HW2 8130   9.011  10.629   1.920
35375SOL     OW 8131   8.841   9.417   2.310
35375SOL    HW1 8132   8.827   9.379   2.221
35375SOL    HW2 8133   8.937   9.434   2.310
35376SOL     OW 8134   7.810  10.025   2.303
35376SOL    HW1 8135   7.841   9.935   2.327
35376SOL    HW2 8136   7.719  10.019   2.338
35377SOL     OW 8137   8.991   9.562   3.591
35377SOL    HW1 8138   8.985   9.559   3.690
35377SOL    HW2 8139   8.921   9.499   3.568
35378SOL     OW 8140   8.062   9.424   1.932
35378SOL    HW1 8141   8.133   9.388   1.986
35378SOL    HW2 8142   8.113   9.480   1.869
35379SOL     OW 8143   8.208   9.544   3.603
35379SOL    HW1 8144   8.296   9.502   3.615
35379SOL    HW2 8145   8.218   9.627   3.651
35380SOL     OW 8146   8.335  10.836   3.055
35380SOL    HW1 8147   8.324  10.795   2.968
35380SOL    HW2 8148   8.394  10.775   3.103
35381SOL     OW 8149   8.782   9.893   3.298
35381SOL    HW1 8150   8.818   9.862   3.383
35381SOL    HW2 8151   8.834   9.973   3.280
35382SOL     OW 8152   8.282  10.713   2.812
35382SOL    HW1 8153   8.372  10.700   2.775
35382SOL    HW2 8154   8.230  10.731   2.732
35383SOL     OW 8155   8.384   9.826   2.762
35383SOL    HW1 8156   8.360   9.815   2.667
35383SOL    HW2 8157   8.413   9.736   2.784
35384SOL     OW 8158   8.014   9.354   2.368
35384SOL    HW1 8159   7.938   9.363   2.429
35384SOL    HW2 8160   8.002   9.432   2.311
35385SOL     OW 8161   8.892  10.493   1.898
35385SOL    HW1 8162   8.925  10.422   1.957
35385SOL    HW2 8163   8.799  10.502   1.925
35386SOL     OW 8164   7.732   9.362   2.054
35386SOL    HW1 8165   7.794   9.436   2.045
35386SOL    HW2 8166   7.789   9.296   2.098
35387SOL     OW 8167   8.382   9.558   2.357
35387SOL    HW1 8168   8.365   9.606   2.275
35387SOL    HW2 8169   8.479   9.571   2.367
35388SOL     OW 8170   8.536   9.991   3.325
35388SOL    HW1 8171   8.480   9.912   3.333
35388SOL    HW2 8172   8.627   9.955   3.328
35389SOL     OW 8173   8.693  10.879   2.667
35389SOL    HW1 8174   8.640  10.955   2.640
35389SOL    HW2 8175   8.759  10.919   2.724
35390SOL     OW 8176   7.926  10.464   2.594
35390SOL    HW1 8177   7.856  10.439   2.658
35390SOL    HW2 8178   7.880  10.447   2.510
35391SOL     OW 8179   8.491   9.873   1.936
35391SOL    HW1 8180   8.480   9.952   1.882
35391SOL    HW2 8181   8.573   9.888   1.985
35392SOL     OW 8182   7.513   9.872   3.253
35392SOL    HW1 8183   7.608   9.858   3.233
35392SOL    HW2 8184   7.518   9.948   3.314
35393SOL     OW 8185   8.027   9.536   3.016
35393SOL    HW1 8186   8.070   9.462   3.061
35393SOL    HW2 8187   7.936   9.528   3.049
35394SOL     OW 8188   8.321   9.771   2.516
35394SOL    HW1 8189   8.280   9.819   2.443
35394SOL    HW2 8190   8.339   9.684   2.476
35395SOL     OW 8191   8.482   9.376   2.624
35395SOL    HW1 8192   8.426   9.367   2.546
35395SOL    HW2 8193   8.457   9.299   2.677
35396SOL     OW 8194   8.871  10.488   2.737
35396SOL    HW1 8195   8.799  10.425   2.749
35396SOL    HW2 8196   8.887  10.483   2.642
35397SOL     OW 8197   8.942   9.882   2.828
35397SOL    HW1 8198   8.874   9.815   2.846
35397SOL    HW2 8199   8.995   9.883   2.910
35398SOL     OW 8200   9.274  10.128   2.259
35398SOL    HW1 8201   9.339  10.077   2.312
35398SOL    HW2 8202   9.262  10.068   2.183
35399SOL     OW 8203   7.930  10.742   2.038
35399SOL    HW1 8204   7.858  10.701   2.089
35399SOL    HW2 8205   7.904  10.719   1.948
35400SOL     OW 8206   9.130  10.602   2.533
35400SOL    HW1 8207   9.224  10.625   2.530
35400SOL    HW2 8208   9.085  10.686   2.552
35401SOL     OW 8209   8.844   9.907   1.926
35401SOL    HW1 8210   8.799   9.880   2.009
35401SOL    HW2 8211   8.924   9.853   1.930
35402SOL     OW 8212   7.969   9.534   2.169
35402SOL    HW1 8213   8.001   9.507   2.082
35402SOL    HW2 8214   7.938   9.625   2.149
35403SOL     OW 8215   9.187  10.516   3.460
35403SOL    HW1 8216   9.275  10.480   3.477
35403SOL    HW2 8217   9.201  10.611   3.478
35404SOL     OW 8218   8.514  10.668   3.214
35404SOL    HW1 8219   8.440  10.619   3.254
35404SOL    HW2 8220   8.592  10.618   3.245
35405SOL     OW 8221   9.042  10.968   3.508
35405SOL    HW1 8222   9.051  11.034   3.437
35405SOL    HW2 8223   9.126  10.920   3.502
35406SOL     OW 8224   8.558  10.507   2.977
35406SOL    HW1 8225   8.494  10.553   3.032
35406SOL    HW2 8226   8.546  10.551   2.891
35407SOL     OW 8227   9.040  10.399   2.936
35407SOL    HW1 8228   9.047  10.462   3.009
35407SOL    HW2 8229   8.976  10.443   2.876
35408SOL     OW 8230   8.370   9.404   3.265
35408SOL    HW1 8231   8.398   9.380   3.174
35408SOL    HW2 8232   8.447   9.455   3.296
35409SOL     OW 8233   8.448  10.431   3.603
35409SOL    HW1 8234   8.353  10.441   3.625
35409SOL    HW2 8235   8.446  10.352   3.546
35410SOL     OW 8236   8.138  10.378   2.194
35410SOL    HW1 8237   8.137  10.357   2.289
35410SOL    HW2 8238   8.217  10.327   2.166
35411SOL     OW 8239   7.868  10.131   3.125
35411SOL    HW1 8240   7.940  10.124   3.191
35411SOL    HW2 8241   7.826  10.044   3.132
35412SOL     OW 8242   8.726   9.694   3.124
35412SOL    HW1 8243   8.746   9.768   3.186
35412SOL    HW2 8244   8.634   9.712   3.099
35413SOL     OW 8245   7.506  10.886   3.214
35413SOL    HW1 8246   7.487  10.936   3.133
35413SOL    HW2 8247   7.603  10.876   3.210
35414SOL     OW 8248   7.814  10.392   2.362
35414SOL    HW1 8249   7.841  10.456   2.296
35414SOL    HW2 8250   7.828  10.306   2.320
35415SOL     OW 8251   7.980   9.860   2.698
35415SOL    HW1 8252   8.015   9.915   2.625
35415SOL    HW2 8253   8.045   9.879   2.769
35416SOL     OW 8254   8.683  10.657   2.254
35416SOL    HW1 8255   8.744  10.724   2.290
35416SOL    HW2 8256   8.597  10.695   2.279
35417SOL     OW 8257   8.749  10.748   3.031
35417SOL    HW1 8258   8.800  10.767   3.112
35417SOL    HW2 8259   8.693  10.673   3.056
35418SOL     OW 8260   9.034   9.918   2.339
35418SOL    HW1 8261   8.990   9.982   2.397
35418SOL    HW2 8262   9.074   9.975   2.272
35419SOL     OW 8263   7.774  10.838   3.194
35419SOL    HW1 8264   7.764  10.803   3.103
35419SOL    HW2 8265   7.871  10.844   3.197
35420SOL     OW 8266   7.892  10.024   3.491
35420SOL    HW1 8267   7.942  10.080   3.429
35420SOL    HW2 8268   7.936   9.938   3.479
35421SOL     OW 8269   9.073  10.094   3.545
35421SOL    HW1 8270   8.981  10.124   3.539
35421SOL    HW2 8271   9.112  10.131   3.464
35422SOL     OW 8272   8.446   9.423   3.622
35422SOL    HW1 8273   8.500   9.502   3.606
35422SOL    HW2 8274   8.492   9.357   3.569
35423SOL     OW 8275   7.952   9.315   3.629
35423SOL    HW1 8276   7.909   9.271   3.554
35423SOL    HW2 8277   7.897   9.395   3.638
35424SOL     OW 8278   8.025  10.213   2.897
35424SOL    HW1 8279   8.070  10.298   2.904
35424SOL    HW2 8280   7.983  10.200   2.983
35425SOL     OW 8281   8.806  10.182   2.885
35425SOL    HW1 8282   8.727  10.143   2.846
35425SOL    HW2 8283   8.861  10.104   2.898
35426SOL     OW 8284   8.673   9.844   2.145
35426SOL    HW1 8285   8.673   9.760   2.195
35426SOL    HW2 8286   8.626   9.903   2.207
35427SOL     OW 8287   7.752   9.514   3.107
35427SOL    HW1 8288   7.705   9.543   3.187
35427SOL    HW2 8289   7.733   9.418   3.106
35428SOL     OW 8290   7.487  10.613   3.135
35428SOL    HW1 8291   7.518  10.562   3.213
35428SOL    HW2 8292   7.465  10.700   3.173
35429SOL     OW 8293   8.158   9.951   2.884
35429SOL    HW1 8294   8.242   9.936   2.838
35429SOL    HW2 8295   8.138  10.045   2.870
35430SOL     OW 8296   9.211  10.267   3.705
35430SOL    HW1 8297   9.169  10.201   3.648
35430SOL    HW2 8298   9.142  10.279   3.773
35431SOL     OW 8299   7.757   9.376   2.477
35431SOL    HW1 8300   7.722   9.464   2.500
35431SOL    HW2 8301   7.761   9.333   2.564
35432SOL     OW 8302   9.043   9.682   2.215
35432SOL    HW1 8303   9.082   9.616   2.274
35432SOL    HW2 8304   9.035   9.761   2.273
35433SOL     OW 8305   8.496  10.061   2.828
35433SOL    HW1 8306   8.485  10.079   2.924
35433SOL    HW2 8307   8.464   9.968   2.821
35434SOL     OW 8308   8.417  10.873   3.558
35434SOL    HW1 8309   8.444  10.926   3.482
35434SOL    HW2 8310   8.462  10.788   3.542
35435SOL     OW 8311   9.281  10.827   3.474
35435SOL    HW1 8312   9.304  10.854   3.383
35435SOL    HW2 8313   9.366  10.834   3.520
35436SOL     OW 8314   7.808  10.212   3.659
35436SOL    HW1 8315   7.882  10.234   3.718
35436SOL    HW2 8316   7.843  10.133   3.612
35437SOL     OW 8317   8.952   9.559   1.987
35437SOL    HW1 8318   8.880   9.505   2.026
35437SOL    HW2 8319   8.994   9.599   2.066
35438SOL     OW 8320   8.721  10.149   1.890
35438SOL    HW1 8321   8.763  10.062   1.904
35438SOL    HW2 8322   8.758  10.171   1.802
35439SOL     OW 8323   8.526  10.642   2.720
35439SOL    HW1 8324   8.536  10.565   2.660
35439SOL    HW2 8325   8.593  10.705   2.687
35440SOL     OW 8326   7.724  10.119   2.859
35440SOL    HW1 8327   7.817  10.139   2.841
35440SOL    HW2 8328   7.728  10.024   2.881
35441SOL     OW 8329   7.771   9.842   2.864
35441SOL    HW1 8330   7.751   9.748   2.850
35441SOL    HW2 8331   7.836   9.858   2.793
35442SOL     OW 8332   8.618   9.655   3.546
35442SOL    HW1 8333   8.554   9.705   3.604
35442SOL    HW2 8334   8.698   9.709   3.557
35443SOL     OW 8335   8.620   9.506   3.328
35443SOL    HW1 8336   8.622   9.561   3.409
35443SOL    HW2 8337   8.659   9.566   3.263
35444SOL     OW 8338   7.450  10.622   2.027
35444SOL    HW1 8339   7.358  10.646   2.000
35444SOL    HW2 8340   7.435  10.541   2.080
35445SOL     OW 8341   7.962  10.897   2.796
35445SOL    HW1 8342   8.042  10.948   2.806
35445SOL    HW2 8343   7.991  10.827   2.735
35446SOL     OW 8344   8.435  10.110   3.093
35446SOL    HW1 8345   8.490  10.075   3.166
35446SOL    HW2 8346   8.349  10.072   3.115
35447SOL     OW 8347   7.493   9.837   2.962
35447SOL    HW1 8348   7.576   9.834   2.913
35447SOL    HW2 8349   7.523   9.847   3.053
35448SOL     OW 8350   7.658   9.821   3.568
35448SOL    HW1 8351   7.726   9.790   3.506
35448SOL    HW2 8352   7.619   9.897   3.520
35449SOL     OW 8353   8.826  10.228   3.506
35449SOL    HW1 8354   8.864  10.318   3.509
35449SOL    HW2 8355   8.825  10.208   3.411
35450SOL     OW 8356   8.254   9.870   2.251
35450SOL    HW1 8357   8.276   9.807   2.179
35450SOL    HW2 8358   8.184   9.923   2.209
35451SOL     OW 8359   9.099   9.917   3.049
35451SOL    HW1 8360   9.082   9.856   3.122
35451SOL    HW2 8361   9.184   9.882   3.014
35452SOL     OW 8362   7.688  10.857   3.606
35452SOL    HW1 8363   7.629  10.884   3.678
35452SOL    HW2 8364   7.711  10.766   3.634
35453SOL     OW 8365   8.123   9.790   3.124
35453SOL    HW1 8366   8.090   9.706   3.087
35453SOL    HW2 8367   8.126   9.849   3.047
35454SOL     OW 8368   7.890   9.772   2.061
35454SOL    HW1 8369   7.958   9.841   2.060
35454SOL    HW2 8370   7.809   9.824   2.063
35455SOL     OW 8371   7.585  10.455   3.333
35455SOL    HW1 8372   7.598  10.396   3.411
35455SOL    HW2 8373   7.601  10.393   3.258
35456SOL     OW 8374   8.768  10.346   3.106
35456SOL    HW1 8375   8.793  10.297   3.025
35456SOL    HW2 8376   8.688  10.392   3.074
35457SOL     OW 8377   8.754  10.187   2.157
35457SOL    HW1 8378   8.675  10.147   2.195
35457SOL    HW2 8379   8.739  10.184   2.061
35458SOL     OW 8380   9.216  11.030   3.010
35458SOL    HW1 8381   9.277  11.049   2.937
35458SOL    HW2 8382   9.193  10.936   2.994
35459SOL     OW 8383   8.691  11.015   2.962
35459SOL    HW1 8384   8.781  11.036   2.932
35459SOL    HW2 8385   8.695  10.919   2.975
35460SOL     OW 8386   7.555  10.575   2.880
35460SOL    HW1 8387   7.524  10.587   2.972
35460SOL    HW2 8388   7.484  10.521   2.843
35461SOL     OW 8389   8.113  11.014   3.564
35461SOL    HW1 8390   8.180  11.055   3.619
35461SOL    HW2 8391   8.169  10.962   3.505
35462SOL     OW 8392   9.142   9.457   2.361
35462SOL    HW1 8393   9.210   9.435   2.296
35462SOL    HW2 8394   9.136   9.374   2.413
35463SOL     OW 8395   8.836  10.867   2.345
35463SOL    HW1 8396   8.910  10.882   2.282
35463SOL    HW2 8397   8.796  10.955   2.348
35464SOL     OW 8398   7.599   0.005   3.715
35464SOL    HW1 8399   7.540  11.035   3.746
35464SOL    HW2 8400   7.635   0.034   3.801
35465SOL     OW 8401   8.708  10.214   2.523
35465SOL    HW1 8402   8.788  10.163   2.547
35465SOL    HW2 8403   8.746  10.293   2.480
35466SOL     OW 8404   8.241  10.582   3.280
35466SOL    HW1 8405   8.218  10.637   3.358
35466SOL    HW2 8406   8.161  10.591   3.226
35467SOL     OW 8407   8.112  10.935   2.004
35467SOL    HW1 8408   8.136  10.922   1.911
35467SOL    HW2 8409   8.052  10.859   2.020
35468SOL     OW 8410   9.292   9.465   2.832
35468SOL    HW1 8411   9.308   9.377   2.793
35468SOL    HW2 8412   9.206   9.492   2.793
35469SOL     OW 8413   7.694   9.632   2.564
35469SOL    HW1 8414   7.606   9.672   2.548
35469SOL    HW2 8415   7.701   9.637   2.661
35470SOL     OW 8416   8.644  10.932   1.900
35470SOL    HW1 8417   8.640  10.838   1.923
35470SOL    HW2 8418   8.582  10.939   1.825
35471SOL     OW 8419   8.269  10.324   3.234
35471SOL    HW1 8420   8.318  10.324   3.151
35471SOL    HW2 8421   8.266  10.418   3.259
35472SOL     OW 8422   8.341  10.224   2.129
35472SOL    HW1 8423   8.419  10.260   2.080
35472SOL    HW2 8424   8.381  10.149   2.176
35473SOL     OW 8425   8.979  10.954   1.907
35473SOL    HW1 8426   8.885  10.934   1.900
35473SOL    HW2 8427   9.003  10.963   1.812
35474SOL     OW 8428   7.806  10.598   3.351
35474SOL    HW1 8429   7.785  10.671   3.292
35474SOL    HW2 8430   7.727  10.541   3.341
35475SOL     OW 8431   9.053  10.603   3.146
35475SOL    HW1 8432   9.090  10.574   3.230
35475SOL    HW2 8433   8.995  10.676   3.176
35476SOL     OW 8434   8.510  10.414   2.585
35476SOL    HW1 8435   8.438  10.359   2.621
35476SOL    HW2 8436   8.564  10.349   2.538
35477SOL     OW 8437   8.482   9.538   2.842
35477SOL    HW1 8438   8.475   9.494   2.756
35477SOL    HW2 8439   8.482   9.462   2.904
35478SOL     OW 8440   8.058  10.815   2.350
35478SOL    HW1 8441   8.075  10.781   2.262
35478SOL    HW2 8442   8.000  10.890   2.333
35479SOL     OW 8443   9.159   9.685   3.242
35479SOL    HW1 8444   9.226   9.756   3.239
35479SOL    HW2 8445   9.202   9.617   3.186
35480SOL     OW 8446   7.705  10.643   2.146
35480SOL    HW1 8447   7.610  10.654   2.131
35480SOL    HW2 8448   7.714  10.686   2.235
35481SOL     OW 8449   7.580  10.325   3.567
35481SOL    HW1 8450   7.506  10.308   3.629
35481SOL    HW2 8451   7.656  10.282   3.614
35482SOL     OW 8452   8.114   9.495   3.353
35482SOL    HW1 8453   8.203   9.465   3.324
35482SOL    HW2 8454   8.134   9.524   3.445
35483SOL     OW 8455   7.553   9.641   1.862
35483SOL    HW1 8456   7.458   9.649   1.853
35483SOL    HW2 8457   7.584   9.718   1.810
35484SOL     OW 8458   8.899  10.154   3.249
35484SOL    HW1 8459   8.848  10.220   3.198
35484SOL    HW2 8460   8.989  10.176   3.222
35485SOL     OW 8461   7.493   9.468   2.150
35485SOL    HW1 8462   7.484   9.558   2.117
35485SOL    HW2 8463   7.578   9.440   2.110
35486SOL     OW 8464   8.640  10.646   1.985
35486SOL    HW1 8465   8.554  10.601   1.984
35486SOL    HW2 8466   8.663  10.644   2.080
35487SOL     OW 8467   8.073  10.130   3.295
35487SOL    HW1 8468   8.127  10.210   3.287
35487SOL    HW2 8469   8.143  10.063   3.307
35488SOL     OW 8470   8.943  11.064   2.838
35488SOL    HW1 8471   8.961   0.016   2.760
35488SOL    HW2 8472   9.032  11.051   2.875
35489SOL     OW 8473   8.176   9.863   3.562
35489SOL    HW1 8474   8.164   9.943   3.615
35489SOL    HW2 8475   8.258   9.828   3.602
35490SOL     OW 8476   8.925  10.478   3.504
35490SOL    HW1 8477   8.907  10.492   3.599
35490SOL    HW2 8478   9.022  10.492   3.501
35491SOL     OW 8479   9.138  10.182   3.094
35491SOL    HW1 8480   9.129  10.089   3.063
35491SOL    HW2 8481   9.097  10.234   3.023
35492SOL     OW 8482   8.654   9.631   2.333
35492SOL    HW1 8483   8.720   9.560   2.324
35492SOL    HW2 8484   8.693   9.686   2.404
35493SOL     OW 8485   8.048  10.049   2.509
35493SOL    HW1 8486   8.091  10.135   2.505
35493SOL    HW2 8487   7.965  10.064   2.462
35494SOL     OW 8488   9.215   9.676   3.500
35494SOL    HW1 8489   9.185   9.688   3.408
35494SOL    HW2 8490   9.139   9.631   3.540
35495SOL     OW 8491   9.200  10.236   3.352
35495SOL    HW1 8492   9.177  10.329   3.358
35495SOL    HW2 8493   9.200  10.219   3.256
35496SOL     OW 8494   8.269  10.679   1.898
35496SOL    HW1 8495   8.260  10.696   1.994
35496SOL    HW2 8496   8.323  10.752   1.866
35497SOL     OW 8497   8.328  10.246   2.692
35497SOL    HW1 8498   8.382  10.179   2.737
35497SOL    HW2 8499   8.303  10.304   2.766
35498SOL     OW 8500   8.528  10.318   1.972
35498SOL    HW1 8501   8.512  10.371   1.892
35498SOL    HW2 8502   8.594  10.254   1.938
35499SOL     OW 8503   9.354  10.858   2.722
35499SOL    HW1 8504   9.276  10.868   2.668
35499SOL    HW2 8505   9.328  10.789   2.784
35500SOL     OW 8506   7.701  10.617   3.730
35500SOL    HW1 8507   7.624  10.567   3.698
35500SOL    HW2 8508   7.684  10.614   3.826
35501SOL     OW 8509   7.542  10.566   2.516
35501SOL    HW1 8510   7.559  10.522   2.600
35501SOL    HW2 8511   7.579  10.503   2.452
35502SOL     OW 8512   8.129  10.725   3.479
35502SOL    HW1 8513   8.082  10.647   3.514
35502SOL    HW2 8514   8.081  10.797   3.520
35503SOL     OW 8515   9.267   9.480   3.092
35503SOL    HW1 8516   9.278   9.384   3.101
35503SOL    HW2 8517   9.278   9.489   2.994
35504SOL     OW 8518   7.862   9.773   2.385
35504SOL    HW1 8519   7.923   9.705   2.353
35504SOL    HW2 8520   7.816   9.729   2.459
35505SOL     OW 8521   9.149  10.779   2.949
35505SOL    HW1 8522   9.069  10.770   2.893
35505SOL    HW2 8523   9.129  10.715   3.020
35506SOL     OW 8524   7.776   9.844   3.150
35506SOL    HW1 8525   7.851   9.808   3.199
35506SOL    HW2 8526   7.795   9.817   3.059
35507SOL     OW 8527   8.254  10.891   2.557
35507SOL    HW1 8528   8.259  10.961   2.489
35507SOL    HW2 8529   8.168  10.850   2.539
35508SOL     OW 8530   8.874   9.541   2.961
35508SOL    HW1 8531   8.917   9.471   3.012
35508SOL    HW2 8532   8.826   9.592   3.029
35509SOL     OW 8533   8.456   9.308   3.013
35509SOL    HW1 8534   8.407   9.238   2.967
35509SOL    HW2 8535   8.548   9.272   3.011
35510SOL     OW 8536   8.247  10.647   2.170
35510SOL    HW1 8537   8.193  10.567   2.169
35510SOL    HW2 8538   8.313  10.626   2.237
35511SOL     OW 8539   8.050  10.840   3.132
35511SOL    HW1 8540   8.053  10.931   3.163
35511SOL    HW2 8541   8.143  10.827   3.106
35512SOL     OW 8542   8.768   9.335   2.050
35512SOL    HW1 8543   8.781   9.288   1.967
35512SOL    HW2 8544   8.677   9.305   2.075
35513SOL     OW 8545   8.759   9.789   2.540
35513SOL    HW1 8546   8.692   9.859   2.545
35513SOL    HW2 8547   8.747   9.742   2.624
35514SOL     OW 8548   9.050   9.516   2.727
35514SOL    HW1 8549   8.967   9.525   2.777
35514SOL    HW2 8550   9.051   9.597   2.673
35515SOL     OW 8551   7.484  10.383   2.172
35515SOL    HW1 8552   7.573  10.367   2.139
35515SOL    HW2 8553   7.457  10.293   2.200
35516SOL     OW 8554   7.686   9.956   3.853
35516SOL    HW1 8555   7.597   9.938   3.886
35516SOL    HW2 8556   7.686   9.923   3.762
35517SOL     OW 8557   7.672   9.580   4.707
35517SOL    HW1 8558   7.690   9.568   4.803
35517SOL    HW2 8559   7.580   9.548   4.701
35518SOL     OW 8560   7.444   9.715   4.345
35518SOL    HW1 8561   7.370   9.746   4.401
35518SOL    HW2 8562   7.407   9.635   4.307
35519SOL     OW 8563   8.007  10.577   4.902
35519SOL    HW1 8564   7.927  10.568   4.848
35519SOL    HW2 8565   7.992  10.661   4.946
35520SOL     OW 8566   9.010  10.843   4.437
35520SOL    HW1 8567   8.956  10.825   4.516
35520SOL    HW2 8568   8.944  10.851   4.365
35521SOL     OW 8569   8.579   9.980   4.432
35521SOL    HW1 8570   8.612  10.068   4.402
35521SOL    HW2 8571   8.544  10.003   4.520
35522SOL     OW 8572   9.229   9.918   3.959
35522SOL    HW1 8573   9.200   9.907   3.865
35522SOL    HW2 8574   9.175   9.851   4.003
35523SOL     OW 8575   8.193  10.458   4.746
35523SOL    HW1 8576   8.128  10.499   4.807
35523SOL    HW2 8577   8.233  10.537   4.707
35524SOL     OW 8578   8.307  10.108   5.532
35524SOL    HW1 8579   8.302  10.176   5.600
35524SOL    HW2 8580   8.331  10.156   5.452
35525SOL     OW 8581   8.141  10.333   4.380
35525SOL    HW1 8582   8.204  10.317   4.452
35525SOL    HW2 8583   8.068  10.380   4.424
35526SOL     OW 8584   8.169  10.451   5.527
35526SOL    HW1 8585   8.201  10.538   5.560
35526SOL    HW2 8586   8.083  10.475   5.488
35527SOL     OW 8587   7.768  10.758   4.805
35527SOL    HW1 8588   7.697  10.705   4.763
35527SOL    HW2 8589   7.814  10.800   4.730
35528SOL     OW 8590   8.907  10.789   5.101
35528SOL    HW1 8591   8.944  10.872   5.134
35528SOL    HW2 8592   8.845  10.766   5.172
35529SOL     OW 8593   7.892   9.719   5.212
35529SOL    HW1 8594   7.969   9.663   5.231
35529SOL    HW2 8595   7.818   9.657   5.219
35530SOL     OW 8596   9.073   9.768   4.471
35530SOL    HW1 8597   9.003   9.803   4.414
35530SOL    HW2 8598   9.049   9.813   4.554
35531SOL     OW 8599   8.594  10.655   5.397
35531SOL    HW1 8600   8.633  10.656   5.485
35531SOL    HW2 8601   8.544  10.571   5.400
35532SOL     OW 8602   7.682  10.768   4.246
35532SOL    HW1 8603   7.696  10.848   4.298
35532SOL    HW2 8604   7.629  10.712   4.305
35533SOL     OW 8605   7.754  10.411   4.644
35533SOL    HW1 8606   7.715  10.329   4.676
35533SOL    HW2 8607   7.685  10.476   4.668
35534SOL     OW 8608   8.013  10.299   3.835
35534SOL    HW1 8609   8.082  10.306   3.766
35534SOL    HW2 8610   8.060  10.336   3.912
35535SOL     OW 8611   9.062   9.420   5.225
35535SOL    HW1 8612   9.042   9.500   5.173
35535SOL    HW2 8613   9.062   9.456   5.314
35536SOL     OW 8614   7.561   9.966   4.287
35536SOL    HW1 8615   7.531   9.876   4.309
35536SOL    HW2 8616   7.552  10.013   4.372
35537SOL     OW 8617   7.503  10.898   3.843
35537SOL    HW1 8618   7.493  10.804   3.865
35537SOL    HW2 8619   7.446  10.938   3.910
35538SOL     OW 8620   9.129  10.229   4.369
35538SOL    HW1 8621   9.197  10.184   4.316
35538SOL    HW2 8622   9.092  10.291   4.304
35539SOL     OW 8623   9.094  10.432   4.161
35539SOL    HW1 8624   9.187  10.425   4.134
35539SOL    HW2 8625   9.100  10.494   4.237
35540SOL     OW 8626   7.567  10.047   5.299
35540SOL    HW1 8627   7.658  10.080   5.308
35540SOL    HW2 8628   7.514  10.126   5.317
35541SOL     OW 8629   8.038  10.712   4.475
35541SOL    HW1 8630   7.999  10.622   4.482
35541SOL    HW2 8631   8.035  10.724   4.378
35542SOL     OW 8632   8.749  10.543   5.152
35542SOL    HW1 8633   8.774  10.472   5.090
35542SOL    HW2 8634   8.803  10.521   5.230
35543SOL     OW 8635   8.270   9.301   4.223
35543SOL    HW1 8636   8.307   9.392   4.216
35543SOL    HW2 8637   8.175   9.319   4.224
35544SOL     OW 8638   7.629  10.291   4.983
35544SOL    HW1 8639   7.713  10.244   4.965
35544SOL    HW2 8640   7.565  10.245   4.927
35545SOL     OW 8641   8.990  10.288   3.926
35545SOL    HW1 8642   8.910  10.242   3.957
35545SOL    HW2 8643   9.026  10.323   4.009
35546SOL     OW 8644   8.645   0.004   5.351
35546SOL    HW1 8645   8.644   0.072   5.281
35546SOL    HW2 8646   8.663  11.024   5.299
35547SOL     OW 8647   7.791   9.560   5.503
35547SOL    HW1 8648   7.862   9.610   5.545
35547SOL    HW2 8649   7.714   9.586   5.557
35548SOL     OW 8650   8.914  10.734   4.683
35548SOL    HW1 8651   8.849  10.741   4.756
35548SOL    HW2 8652   8.892  10.646   4.647
35549SOL     OW 8653   8.044  10.017   3.979
35549SOL    HW1 8654   8.050  10.104   3.937
35549SOL    HW2 8655   7.975  10.030   4.047
35550SOL     OW 8656   8.718   9.643   4.629
35550SOL    HW1 8657   8.627   9.619   4.655
35550SOL    HW2 8658   8.770   9.609   4.703
35551SOL     OW 8659   9.016  10.948   4.029
35551SOL    HW1 8660   9.060  11.029   4.055
35551SOL    HW2 8661   9.013  10.956   3.931
35552SOL     OW 8662   8.259   9.925   5.176
35552SOL    HW1 8663   8.232   9.899   5.267
35552SOL    HW2 8664   8.199   9.869   5.121
35553SOL     OW 8665   8.849   9.802   5.395
35553SOL    HW1 8666   8.851   9.853   5.479
35553SOL    HW2 8667   8.897   9.721   5.420
35554SOL     OW 8668   8.408  10.210   5.300
35554SOL    HW1 8669   8.442  10.124   5.269
35554SOL    HW2 8670   8.368  10.246   5.218
35555SOL     OW 8671   8.448   9.717   4.961
35555SOL    HW1 8672   8.385   9.728   5.033
35555SOL    HW2 8673   8.393   9.685   4.889
35556SOL     OW 8674   8.481   9.998   4.133
35556SOL    HW1 8675   8.498  10.011   4.227
35556SOL    HW2 8676   8.400   9.943   4.133
35557SOL     OW 8677   7.548  10.111   4.516
35557SOL    HW1 8678   7.617  10.118   4.584
35557SOL    HW2 8679   7.503  10.197   4.526
35558SOL     OW 8680   7.509   0.069   5.309
35558SOL    HW1 8681   7.549   0.037   5.392
35558SOL    HW2 8682   7.415   0.066   5.328
35559SOL     OW 8683   8.328   9.644   3.955
35559SOL    HW1 8684   8.344   9.708   3.881
35559SOL    HW2 8685   8.393   9.578   3.930
35560SOL     OW 8686   9.176   9.885   5.569
35560SOL    HW1 8687   9.134   9.962   5.523
35560SOL    HW2 8688   9.202   9.832   5.492
35561SOL     OW 8689   8.809  10.452   4.289
35561SOL    HW1 8690   8.885  10.450   4.230
35561SOL    HW2 8691   8.753  10.518   4.244
35562SOL     OW 8692   7.986   9.510   4.613
35562SOL    HW1 8693   8.001   9.519   4.710
35562SOL    HW2 8694   7.983   9.602   4.584
35563SOL     OW 8695   8.441  10.780   4.205
35563SOL    HW1 8696   8.358  10.820   4.176
35563SOL    HW2 8697   8.442  10.797   4.300
35564SOL     OW 8698   7.800   0.004   4.578
35564SOL    HW1 8699   7.851  11.027   4.603
35564SOL    HW2 8700   7.862   0.077   4.599
35565SOL     OW 8701   9.248  10.383   4.617
35565SOL    HW1 8702   9.202  10.365   4.533
35565SOL    HW2 8703   9.177  10.370   4.682
35566SOL     OW 8704   8.659  10.864   5.226
35566SOL    HW1 8705   8.654  10.783   5.281
35566SOL    HW2 8706   8.607  10.837   5.149
35567SOL     OW 8707   7.760  10.271   3.976
35567SOL    HW1 8708   7.843  10.286   3.928
35567SOL    HW2 8709   7.731  10.185   3.940
35568SOL     OW 8710   8.930  10.048   4.441
35568SOL    HW1 8711   8.919  10.022   4.533
35568SOL    HW2 8712   9.002  10.113   4.445
35569SOL     OW 8713   7.928  10.559   5.444
35569SOL    HW1 8714   7.877  10.571   5.360
35569SOL    HW2 8715   7.857  10.566   5.509
35570SOL     OW 8716   8.526  11.084   3.971
35570SOL    HW1 8717   8.487  11.017   4.028
35570SOL    HW2 8718   8.549  11.035   3.891
35571SOL     OW 8719   7.628   9.601   5.215
35571SOL    HW1 8720   7.555   9.662   5.234
35571SOL    HW2 8721   7.618   9.534   5.284
35572SOL     OW 8722   9.073  10.698   3.809
35572SOL    HW1 8723   9.026  10.782   3.801
35572SOL    HW2 8724   9.004  10.632   3.789
35573SOL     OW 8725   8.844   9.409   4.164
35573SOL    HW1 8726   8.826   9.366   4.078
35573SOL    HW2 8727   8.922   9.461   4.145
35574SOL     OW 8728   7.849  10.008   4.184
35574SOL    HW1 8729   7.868   9.916   4.207
35574SOL    HW2 8730   7.754  10.014   4.204
35575SOL     OW 8731   8.979   9.567   5.446
35575SOL    HW1 8732   8.983   9.568   5.545
35575SOL    HW2 8733   8.913   9.498   5.432
35576SOL     OW 8734   8.069   9.427   3.845
35576SOL    HW1 8735   8.160   9.447   3.820
35576SOL    HW2 8736   8.034   9.383   3.766
35577SOL     OW 8737   8.346  10.841   4.897
35577SOL    HW1 8738   8.334  10.793   4.814
35577SOL    HW2 8739   8.407  10.786   4.949
35578SOL     OW 8740   8.773   9.900   5.160
35578SOL    HW1 8741   8.809   9.868   5.246
35578SOL    HW2 8742   8.825   9.981   5.144
35579SOL     OW 8743   8.281  10.700   4.660
35579SOL    HW1 8744   8.364  10.696   4.608
35579SOL    HW2 8745   8.213  10.705   4.591
35580SOL     OW 8746   8.392   9.820   4.637
35580SOL    HW1 8747   8.362   9.811   4.543
35580SOL    HW2 8748   8.422   9.730   4.656
35581SOL     OW 8749   7.986   9.356   4.235
35581SOL    HW1 8750   7.954   9.398   4.315
35581SOL    HW2 8751   7.986   9.432   4.172
35582SOL     OW 8752   8.890  10.495   3.772
35582SOL    HW1 8753   8.926  10.419   3.823
35582SOL    HW2 8754   8.796  10.490   3.789
35583SOL     OW 8755   7.727   9.356   3.914
35583SOL    HW1 8756   7.782   9.426   3.876
35583SOL    HW2 8757   7.795   9.297   3.952
35584SOL     OW 8758   8.371   9.558   4.217
35584SOL    HW1 8759   8.344   9.600   4.133
35584SOL    HW2 8760   8.467   9.577   4.216
35585SOL     OW 8761   8.528   9.995   5.193
35585SOL    HW1 8762   8.469   9.919   5.198
35585SOL    HW2 8763   8.617   9.953   5.193
35586SOL     OW 8764   8.692  10.881   4.520
35586SOL    HW1 8765   8.644  10.962   4.497
35586SOL    HW2 8766   8.757  10.914   4.582
35587SOL     OW 8767   7.924  10.476   4.456
35587SOL    HW1 8768   7.857  10.450   4.523
35587SOL    HW2 8769   7.879  10.450   4.372
35588SOL     OW 8770   7.515   9.860   5.117
35588SOL    HW1 8771   7.610   9.847   5.097
35588SOL    HW2 8772   7.520   9.940   5.174
35589SOL     OW 8773   8.014   9.520   4.882
35589SOL    HW1 8774   8.063   9.480   4.956
35589SOL    HW2 8775   7.925   9.528   4.920
35590SOL     OW 8776   8.323   9.778   4.389
35590SOL    HW1 8777   8.287   9.826   4.313
35590SOL    HW2 8778   8.338   9.690   4.351
35591SOL     OW 8779   8.489   9.376   4.487
35591SOL    HW1 8780   8.439   9.364   4.405
35591SOL    HW2 8781   8.460   9.299   4.541
35592SOL     OW 8782   8.866  10.479   4.607
35592SOL    HW1 8783   8.789  10.421   4.618
35592SOL    HW2 8784   8.886  10.467   4.512
35593SOL     OW 8785   8.941   9.877   4.692
35593SOL    HW1 8786   8.874   9.811   4.715
35593SOL    HW2 8787   8.990   9.887   4.776
35594SOL     OW 8788   9.279  10.132   4.128
35594SOL    HW1 8789   9.345  10.081   4.180
35594SOL    HW2 8790   9.260  10.069   4.056
35595SOL     OW 8791   7.933  10.742   3.918
35595SOL    HW1 8792   7.845  10.715   3.953
35595SOL    HW2 8793   7.955  10.667   3.863
35596SOL     OW 8794   9.118  10.588   4.385
35596SOL    HW1 8795   9.215  10.598   4.387
35596SOL    HW2 8796   9.085  10.677   4.404
35597SOL     OW 8797   8.846   9.911   3.782
35597SOL    HW1 8798   8.789   9.880   3.856
35597SOL    HW2 8799   8.931   9.873   3.806
35598SOL     OW 8800   7.964   9.548   4.056
35598SOL    HW1 8801   8.008   9.509   3.978
35598SOL    HW2 8802   7.939   9.635   4.019
35599SOL     OW 8803   9.191  10.525   5.321
35599SOL    HW1 8804   9.281  10.496   5.301
35599SOL    HW2 8805   9.204  10.618   5.344
35600SOL     OW 8806   8.505  10.683   5.077
35600SOL    HW1 8807   8.422  10.646   5.112
35600SOL    HW2 8808   8.572  10.626   5.118
35601SOL     OW 8809   9.037  10.970   5.368
35601SOL    HW1 8810   9.046  11.040   5.301
35601SOL    HW2 8811   9.122  10.923   5.362
35602SOL     OW 8812   8.567  10.513   4.840
35602SOL    HW1 8813   8.501  10.556   4.896
35602SOL    HW2 8814   8.548  10.553   4.754
35603SOL     OW 8815   9.039  10.384   4.797
35603SOL    HW1 8816   9.046  10.452   4.867
35603SOL    HW2 8817   8.975  10.423   4.735
35604SOL     OW 8818   8.364   9.408   5.122
35604SOL    HW1 8819   8.403   9.388   5.034
35604SOL    HW2 8820   8.438   9.451   5.168
35605SOL     OW 8821   8.449  10.437   5.463
35605SOL    HW1 8822   8.356  10.455   5.488
35605SOL    HW2 8823   8.439  10.362   5.402
35606SOL     OW 8824   8.152  10.384   4.056
35606SOL    HW1 8825   8.127  10.357   4.145
35606SOL    HW2 8826   8.229  10.324   4.041
35607SOL     OW 8827   7.862  10.118   4.978
35607SOL    HW1 8828   7.933  10.119   5.045
35607SOL    HW2 8829   7.818  10.033   4.995
35608SOL     OW 8830   8.730   9.701   4.990
35608SOL    HW1 8831   8.745   9.772   5.056
35608SOL    HW2 8832   8.636   9.712   4.969
35609SOL     OW 8833   7.503  10.869   5.066
35609SOL    HW1 8834   7.480  10.939   5.004
35609SOL    HW2 8835   7.600  10.872   5.069
35610SOL     OW 8836   7.808  10.404   4.221
35610SOL    HW1 8837   7.825  10.477   4.160
35610SOL    HW2 8838   7.791  10.329   4.160
35611SOL     OW 8839   7.980   9.853   4.566
35611SOL    HW1 8840   8.007   9.908   4.489
35611SOL    HW2 8841   8.047   9.880   4.633
35612SOL     OW 8842   8.690  10.663   4.116
35612SOL    HW1 8843   8.746  10.732   4.157
35612SOL    HW2 8844   8.601  10.694   4.140
35613SOL     OW 8845   8.738  10.761   4.894
35613SOL    HW1 8846   8.798  10.770   4.971
35613SOL    HW2 8847   8.688  10.681   4.914
35614SOL     OW 8848   9.032   9.925   4.195
35614SOL    HW1 8849   8.977   9.967   4.264
35614SOL    HW2 8850   9.054  10.002   4.140
35615SOL     OW 8851   7.782  10.819   5.061
35615SOL    HW1 8852   7.769  10.799   4.966
35615SOL    HW2 8853   7.877  10.840   5.059
35616SOL     OW 8854   7.885  10.034   5.339
35616SOL    HW1 8855   7.942  10.083   5.277
35616SOL    HW2 8856   7.930   9.948   5.341
35617SOL     OW 8857   9.088  10.077   5.403
35617SOL    HW1 8858   8.995  10.105   5.395
35617SOL    HW2 8859   9.127  10.123   5.325
35618SOL     OW 8860   8.479   9.373   5.530
35618SOL    HW1 8861   8.420   9.441   5.494
35618SOL    HW2 8862   8.529   9.341   5.453
35619SOL     OW 8863   7.946   9.320   5.480
35619SOL    HW1 8864   7.908   9.270   5.406
35619SOL    HW2 8865   7.894   9.403   5.477
35620SOL     OW 8866   8.062  10.194   4.786
35620SOL    HW1 8867   8.075  10.289   4.779
35620SOL    HW2 8868   7.991  10.185   4.853
35621SOL     OW 8869   8.818  10.181   4.732
35621SOL    HW1 8870   8.738  10.140   4.698
35621SOL    HW2 8871   8.862  10.106   4.775
35622SOL     OW 8872   8.694   9.828   3.996
35622SOL    HW1 8873   8.682   9.754   4.059
35622SOL    HW2 8874   8.610   9.874   4.005
35623SOL     OW 8875   7.749   9.521   4.972
35623SOL    HW1 8876   7.706   9.553   5.053
35623SOL    HW2 8877   7.723   9.427   4.972
35624SOL     OW 8878   7.483  10.609   4.993
35624SOL    HW1 8879   7.517  10.559   5.069
35624SOL    HW2 8880   7.480  10.701   5.025
35625SOL     OW 8881   8.157   9.938   4.749
35625SOL    HW1 8882   8.248   9.925   4.717
35625SOL    HW2 8883   8.146  10.036   4.752
35626SOL     OW 8884   9.221  10.258   5.557
35626SOL    HW1 8885   9.168  10.196   5.505
35626SOL    HW2 8886   9.163  10.278   5.631
35627SOL     OW 8887   7.743   9.373   4.445
35627SOL    HW1 8888   7.737   9.470   4.432
35627SOL    HW2 8889   7.672   9.342   4.387
35628SOL     OW 8890   9.032   9.676   4.092
35628SOL    HW1 8891   9.081   9.633   4.163
35628SOL    HW2 8892   9.021   9.767   4.129
35629SOL     OW 8893   8.511  10.052   4.680
35629SOL    HW1 8894   8.495  10.072   4.774
35629SOL    HW2 8895   8.472   9.963   4.672
35630SOL     OW 8896   8.433  10.860   5.435
35630SOL    HW1 8897   8.442  10.909   5.353
35630SOL    HW2 8898   8.472  10.773   5.412
35631SOL     OW 8899   9.283  10.838   5.327
35631SOL    HW1 8900   9.314  10.848   5.234
35631SOL    HW2 8901   9.367  10.841   5.376
35632SOL     OW 8902   7.795  10.199   5.526
35632SOL    HW1 8903   7.876  10.224   5.572
35632SOL    HW2 8904   7.826  10.128   5.466
35633SOL     OW 8905   8.950   9.557   3.851
35633SOL    HW1 8906   8.870   9.511   3.881
35633SOL    HW2 8907   8.981   9.601   3.932
35634SOL     OW 8908   8.739  10.164   3.750
35634SOL    HW1 8909   8.758  10.070   3.762
35634SOL    HW2 8910   8.765  10.176   3.656
35635SOL     OW 8911   8.534  10.635   4.574
35635SOL    HW1 8912   8.533  10.555   4.516
35635SOL    HW2 8913   8.610  10.686   4.543
35636SOL     OW 8914   7.732  10.117   4.714
35636SOL    HW1 8915   7.825  10.142   4.703
35636SOL    HW2 8916   7.739  10.025   4.743
35637SOL     OW 8917   7.773   9.837   4.728
35637SOL    HW1 8918   7.746   9.745   4.708
35637SOL    HW2 8919   7.843   9.852   4.661
35638SOL     OW 8920   8.606   9.684   5.404
35638SOL    HW1 8921   8.552   9.724   5.474
35638SOL    HW2 8922   8.688   9.735   5.413
35639SOL     OW 8923   8.621   9.503   5.208
35639SOL    HW1 8924   8.614   9.563   5.285
35639SOL    HW2 8925   8.661   9.562   5.142
35640SOL     OW 8926   7.448  10.631   3.902
35640SOL    HW1 8927   7.355  10.648   3.876
35640SOL    HW2 8928   7.442  10.542   3.942
35641SOL     OW 8929   7.963  10.903   4.651
35641SOL    HW1 8930   8.045  10.954   4.661
35641SOL    HW2 8931   7.993  10.829   4.595
35642SOL     OW 8932   8.432  10.083   4.938
35642SOL    HW1 8933   8.489  10.053   5.011
35642SOL    HW2 8934   8.344  10.060   4.972
35643SOL     OW 8935   7.496   9.826   4.832
35643SOL    HW1 8936   7.578   9.836   4.782
35643SOL    HW2 8937   7.523   9.849   4.921
35644SOL     OW 8938   7.653   9.835   5.453
35644SOL    HW1 8939   7.724   9.801   5.397
35644SOL    HW2 8940   7.608   9.898   5.394
35645SOL     OW 8941   8.852  10.210   5.371
35645SOL    HW1 8942   8.879  10.304   5.374
35645SOL    HW2 8943   8.830  10.198   5.277
35646SOL     OW 8944   8.252   9.859   4.118
35646SOL    HW1 8945   8.270   9.791   4.051
35646SOL    HW2 8946   8.184   9.913   4.075
35647SOL     OW 8947   9.084   9.931   4.928
35647SOL    HW1 8948   9.054   9.878   5.003
35647SOL    HW2 8949   9.167   9.887   4.902
35648SOL     OW 8950   7.669  10.833   5.455
35648SOL    HW1 8951   7.662  10.907   5.517
35648SOL    HW2 8952   7.686  10.757   5.515
35649SOL     OW 8953   8.116   9.800   4.983
35649SOL    HW1 8954   8.072   9.721   4.951
35649SOL    HW2 8955   8.122   9.856   4.903
35650SOL     OW 8956   7.891   9.780   3.922
35650SOL    HW1 8957   7.961   9.847   3.921
35650SOL    HW2 8958   7.812   9.837   3.916
35651SOL     OW 8959   7.565  10.445   5.190
35651SOL    HW1 8960   7.588  10.395   5.271
35651SOL    HW2 8961   7.587  10.381   5.118
35652SOL     OW 8962   8.771  10.342   4.963
35652SOL    HW1 8963   8.798  10.300   4.880
35652SOL    HW2 8964   8.694  10.393   4.932
35653SOL     OW 8965   8.757  10.187   4.019
35653SOL    HW1 8966   8.678  10.145   4.056
35653SOL    HW2 8967   8.742  10.181   3.922
35654SOL     OW 8968   9.214  11.027   4.876
35654SOL    HW1 8969   9.269  11.042   4.798
35654SOL    HW2 8970   9.187  10.933   4.864
35655SOL     OW 8971   8.697  11.025   4.818
35655SOL    HW1 8972   8.786  11.044   4.784
35655SOL    HW2 8973   8.703  10.930   4.839
35656SOL     OW 8974   7.568  10.580   4.743
35656SOL    HW1 8975   7.529  10.585   4.834
35656SOL    HW2 8976   7.502  10.524   4.697
35657SOL     OW 8977   8.135  10.961   5.438
35657SOL    HW1 8978   8.072  11.034   5.454
35657SOL    HW2 8979   8.212  11.007   5.402
35658SOL     OW 8980   9.199   9.445   4.281
35658SOL    HW1 8981   9.219   9.435   4.186
35658SOL    HW2 8982   9.166   9.355   4.303
35659SOL     OW 8983   8.835  10.876   4.214
35659SOL    HW1 8984   8.906  10.884   4.148
35659SOL    HW2 8985   8.797  10.965   4.211
35660SOL     OW 8986   7.611   0.005   5.559
35660SOL    HW1 8987   7.558  11.040   5.606
35660SOL    HW2 8988   7.664   0.040   5.633
35661SOL     OW 8989   8.712  10.202   4.378
35661SOL    HW1 8990   8.791  10.148   4.400
35661SOL    HW2 8991   8.751  10.284   4.343
35662SOL     OW 8992   8.243  10.579   5.142
35662SOL    HW1 8993   8.216  10.628   5.223
35662SOL    HW2 8994   8.160  10.583   5.093
35663SOL     OW 8995   8.106  10.929   3.859
35663SOL    HW1 8996   8.161  10.875   3.801
35663SOL    HW2 8997   8.042  10.861   3.890
35664SOL     OW 8998   7.696   9.632   4.426
35664SOL    HW1 8999   7.611   9.675   4.403
35664SOL    HW2 9000   7.702   9.649   4.521
35665SOL     OW 9001   8.648  10.939   3.761
35665SOL    HW1 9002   8.641  10.845   3.783
35665SOL    HW2 9003   8.589  10.948   3.684
35666SOL     OW 9004   8.286  10.320   5.079
35666SOL    HW1 9005   8.312  10.311   4.986
35666SOL    HW2 9006   8.278  10.417   5.091
35667SOL     OW 9007   8.364  10.236   4.024
35667SOL    HW1 9008   8.433  10.267   3.963
35667SOL    HW2 9009   8.396  10.147   4.047
35668SOL     OW 9010   8.973  10.963   3.767
35668SOL    HW1 9011   8.882  10.936   3.753
35668SOL    HW2 9012   9.007  10.968   3.675
35669SOL     OW 9013   7.796  10.589   5.218
35669SOL    HW1 9014   7.784  10.665   5.159
35669SOL    HW2 9015   7.715  10.537   5.203
35670SOL     OW 9016   9.051  10.587   4.998
35670SOL    HW1 9017   9.104  10.573   5.077
35670SOL    HW2 9018   8.987  10.655   5.031
35671SOL     OW 9019   8.506  10.411   4.440
35671SOL    HW1 9020   8.435  10.356   4.479
35671SOL    HW2 9021   8.554  10.346   4.387
35672SOL     OW 9022   8.479   9.537   4.707
35672SOL    HW1 9023   8.478   9.489   4.622
35672SOL    HW2 9024   8.479   9.463   4.772
35673SOL     OW 9025   8.057  10.814   4.224
35673SOL    HW1 9026   8.068  10.780   4.134
35673SOL    HW2 9027   8.000  10.891   4.209
35674SOL     OW 9028   9.165   9.681   5.102
35674SOL    HW1 9029   9.228   9.755   5.098
35674SOL    HW2 9030   9.208   9.618   5.041
35675SOL     OW 9031   7.696  10.668   4.004
35675SOL    HW1 9032   7.600  10.666   3.989
35675SOL    HW2 9033   7.700  10.705   4.096
35676SOL     OW 9034   7.583  10.339   5.431
35676SOL    HW1 9035   7.504  10.314   5.484
35676SOL    HW2 9036   7.654  10.288   5.475
35677SOL     OW 9037   8.114   9.484   5.199
35677SOL    HW1 9038   8.206   9.458   5.175
35677SOL    HW2 9039   8.130   9.516   5.291
35678SOL     OW 9040   7.548   9.671   3.767
35678SOL    HW1 9041   7.460   9.657   3.731
35678SOL    HW2 9042   7.584   9.735   3.703
35679SOL     OW 9043   8.905  10.153   5.103
35679SOL    HW1 9044   8.859  10.223   5.052
35679SOL    HW2 9045   8.994  10.191   5.110
35680SOL     OW 9046   7.497   9.473   4.019
35680SOL    HW1 9047   7.489   9.563   3.984
35680SOL    HW2 9048   7.580   9.444   3.977
35681SOL     OW 9049   8.628  10.618   3.851
35681SOL    HW1 9050   8.567  10.546   3.871
35681SOL    HW2 9051   8.665  10.635   3.939
35682SOL     OW 9052   8.077  10.129   5.150
35682SOL    HW1 9053   8.134  10.206   5.140
35682SOL    HW2 9054   8.142  10.058   5.162
35683SOL     OW 9055   8.950  11.057   4.693
35683SOL    HW1 9056   8.981   0.011   4.620
35683SOL    HW2 9057   9.032  11.036   4.739
35684SOL     OW 9058   8.150   9.880   5.415
35684SOL    HW1 9059   8.194   9.926   5.488
35684SOL    HW2 9060   8.163   9.786   5.438
35685SOL     OW 9061   8.924  10.470   5.358
35685SOL    HW1 9062   8.906  10.488   5.453
35685SOL    HW2 9063   9.020  10.486   5.353
35686SOL     OW 9064   9.168  10.192   4.944
35686SOL    HW1 9065   9.135  10.103   4.924
35686SOL    HW2 9066   9.117  10.249   4.883
35687SOL     OW 9067   8.647   9.635   4.198
35687SOL    HW1 9068   8.712   9.564   4.189
35687SOL    HW2 9069   8.689   9.690   4.268
35688SOL     OW 9070   8.050  10.031   4.374
35688SOL    HW1 9071   8.087  10.120   4.373
35688SOL    HW2 9072   7.982  10.037   4.305
35689SOL     OW 9073   9.218   9.677   5.365
35689SOL    HW1 9074   9.187   9.689   5.273
35689SOL    HW2 9075   9.138   9.637   5.405
35690SOL     OW 9076   9.179  10.233   5.209
35690SOL    HW1 9077   9.205  10.325   5.220
35690SOL    HW2 9078   9.203  10.216   5.116
35691SOL     OW 9079   8.257  10.698   3.767
35691SOL    HW1 9080   8.269  10.679   3.862
35691SOL    HW2 9081   8.341  10.737   3.738
35692SOL     OW 9082   8.329  10.258   4.573
35692SOL    HW1 9083   8.381  10.186   4.612
35692SOL    HW2 9084   8.298  10.308   4.650
35693SOL     OW 9085   8.535  10.318   3.834
35693SOL    HW1 9086   8.503  10.363   3.753
35693SOL    HW2 9087   8.598  10.254   3.796
35694SOL     OW 9088   9.279  10.933   4.597
35694SOL    HW1 9089   9.212  10.895   4.538
35694SOL    HW2 9090   9.301  10.858   4.653
35695SOL     OW 9091   7.705  10.610   5.603
35695SOL    HW1 9092   7.632  10.562   5.561
35695SOL    HW2 9093   7.682  10.601   5.697
35696SOL     OW 9094   7.533  10.576   4.372
35696SOL    HW1 9095   7.496  10.520   4.444
35696SOL    HW2 9096   7.584  10.509   4.324
35697SOL     OW 9097   8.122  10.710   5.336
35697SOL    HW1 9098   8.050  10.659   5.379
35697SOL    HW2 9099   8.113  10.798   5.377
35698SOL     OW 9100   9.280   9.476   4.936
35698SOL    HW1 9101   9.305   9.402   4.992
35698SOL    HW2 9102   9.251   9.432   4.856
35699SOL     OW 9103   7.893   9.746   4.260
35699SOL    HW1 9104   7.931   9.677   4.204
35699SOL    HW2 9105   7.841   9.700   4.328
35700SOL     OW 9106   9.143  10.776   4.820
35700SOL    HW1 9107   9.064  10.764   4.764
35700SOL    HW2 9108   9.131  10.703   4.884
35701SOL     OW 9109   7.771   9.849   5.002
35701SOL    HW1 9110   7.839   9.807   5.058
35701SOL    HW2 9111   7.792   9.818   4.912
35702SOL     OW 9112   8.251  10.916   4.431
35702SOL    HW1 9113   8.258  10.976   4.354
35702SOL    HW2 9114   8.175  10.861   4.409
35703SOL     OW 9115   8.878   9.560   4.822
35703SOL    HW1 9116   8.897   9.474   4.863
35703SOL    HW2 9117   8.824   9.606   4.891
35704SOL     OW 9118   8.463   9.318   4.876
35704SOL    HW1 9119   8.406   9.241   4.858
35704SOL    HW2 9120   8.553   9.278   4.872
35705SOL     OW 9121   8.248  10.635   4.031
35705SOL    HW1 9122   8.202  10.549   4.030
35705SOL    HW2 9123   8.307  10.623   4.106
35706SOL     OW 9124   8.051  10.873   5.009
35706SOL    HW1 9125   8.068  10.961   5.041
35706SOL    HW2 9126   8.138  10.847   4.975
35707SOL     OW 9127   8.766   9.328   3.916
35707SOL    HW1 9128   8.771   9.268   3.841
35707SOL    HW2 9129   8.674   9.313   3.946
35708SOL     OW 9130   8.762   9.787   4.399
35708SOL    HW1 9131   8.696   9.859   4.392
35708SOL    HW2 9132   8.736   9.744   4.482
35709SOL     OW 9133   9.056   9.523   4.596
35709SOL    HW1 9134   8.983   9.518   4.660
35709SOL    HW2 9135   9.037   9.607   4.551
35710SOL     OW 9136   7.501  10.389   4.033
35710SOL    HW1 9137   7.593  10.369   4.013
35710SOL    HW2 9138   7.470  10.300   4.059
35711SOL     OW 9139   7.682   9.948   5.718
35711SOL    HW1 9140   7.593   9.927   5.748
35711SOL    HW2 9141   7.682   9.926   5.623
35712SOL     OW 9142   7.668   9.592   6.589
35712SOL    HW1 9143   7.694   9.563   6.679
35712SOL    HW2 9144   7.582   9.546   6.578
35713SOL     OW 9145   7.448   9.722   6.207
35713SOL    HW1 9146   7.365   9.742   6.254
35713SOL    HW2 9147   7.429   9.633   6.174
35714SOL     OW 9148   8.009  10.584   6.757
35714SOL    HW1 9149   7.924  10.603   6.714
35714SOL    HW2 9150   8.026  10.667   6.803
35715SOL     OW 9151   9.011  10.844   6.294
35715SOL    HW1 9152   8.963  10.827   6.378
35715SOL    HW2 9153   8.942  10.835   6.225
35716SOL     OW 9154   8.584   9.986   6.303
35716SOL    HW1 9155   8.617  10.074   6.275
35716SOL    HW2 9156   8.541  10.009   6.387
35717SOL     OW 9157   9.226   9.916   5.826
35717SOL    HW1 9158   9.205   9.903   5.731
35717SOL    HW2 9159   9.178   9.843   5.867
35718SOL     OW 9160   8.178  10.454   6.592
35718SOL    HW1 9161   8.117  10.495   6.658
35718SOL    HW2 9162   8.223  10.533   6.559
35719SOL     OW 9163   8.325  10.062   7.385
35719SOL    HW1 9164   8.305  10.126   7.454
35719SOL    HW2 9165   8.349  10.118   7.308
35720SOL     OW 9166   8.140  10.338   6.236
35720SOL    HW1 9167   8.204  10.318   6.306
35720SOL    HW2 9168   8.070  10.383   6.286
35721SOL     OW 9169   8.173  10.444   7.383
35721SOL    HW1 9170   8.206  10.532   7.412
35721SOL    HW2 9171   8.087  10.467   7.344
35722SOL     OW 9172   7.784  10.745   6.665
35722SOL    HW1 9173   7.707  10.716   6.614
35722SOL    HW2 9174   7.836  10.797   6.602
35723SOL     OW 9175   8.910  10.814   6.968
35723SOL    HW1 9176   8.890  10.909   6.967
35723SOL    HW2 9177   8.852  10.784   7.040
35724SOL     OW 9178   7.870   9.695   7.127
35724SOL    HW1 9179   7.947   9.642   7.102
35724SOL    HW2 9180   7.795   9.644   7.092
35725SOL     OW 9181   9.064   9.763   6.323
35725SOL    HW1 9182   8.994   9.791   6.262
35725SOL    HW2 9183   9.044   9.818   6.400
35726SOL     OW 9184   8.597  10.651   7.253
35726SOL    HW1 9185   8.649  10.651   7.334
35726SOL    HW2 9186   8.553  10.564   7.259
35727SOL     OW 9187   7.664  10.780   6.105
35727SOL    HW1 9188   7.697  10.858   6.151
35727SOL    HW2 9189   7.624  10.727   6.174
35728SOL     OW 9190   7.715  10.402   6.485
35728SOL    HW1 9191   7.711  10.327   6.545
35728SOL    HW2 9192   7.667  10.471   6.534
35729SOL     OW 9193   8.022  10.296   5.699
35729SOL    HW1 9194   8.077  10.339   5.630
35729SOL    HW2 9195   8.060  10.335   5.779
35730SOL     OW 9196   9.056   9.422   7.084
35730SOL    HW1 9197   9.056   9.503   7.030
35730SOL    HW2 9198   9.065   9.459   7.173
35731SOL     OW 9199   7.548   9.967   6.144
35731SOL    HW1 9200   7.524   9.874   6.159
35731SOL    HW2 9201   7.548  10.004   6.234
35732SOL     OW 9202   7.502  10.905   5.703
35732SOL    HW1 9203   7.491  10.809   5.715
35732SOL    HW2 9204   7.443  10.941   5.770
35733SOL     OW 9205   9.118  10.226   6.228
35733SOL    HW1 9206   9.191  10.184   6.181
35733SOL    HW2 9207   9.087  10.290   6.163
35734SOL     OW 9208   9.100  10.423   6.031
35734SOL    HW1 9209   9.191  10.419   5.998
35734SOL    HW2 9210   9.107  10.489   6.103
35735SOL     OW 9211   7.569  10.043   7.175
35735SOL    HW1 9212   7.658  10.079   7.190
35735SOL    HW2 9213   7.515  10.122   7.187
35736SOL     OW 9214   8.030  10.707   6.342
35736SOL    HW1 9215   8.000  10.614   6.354
35736SOL    HW2 9216   8.025  10.714   6.245
35737SOL     OW 9217   8.754  10.543   7.011
35737SOL    HW1 9218   8.781  10.474   6.948
35737SOL    HW2 9219   8.805  10.518   7.090
35738SOL     OW 9220   8.286   9.310   6.086
35738SOL    HW1 9221   8.319   9.401   6.072
35738SOL    HW2 9222   8.189   9.324   6.084
35739SOL     OW 9223   7.634  10.282   6.847
35739SOL    HW1 9224   7.723  10.245   6.832
35739SOL    HW2 9225   7.577  10.216   6.805
35740SOL     OW 9226   8.987  10.294   5.792
35740SOL    HW1 9227   8.908  10.248   5.827
35740SOL    HW2 9228   9.030  10.325   5.873
35741SOL     OW 9229   8.641  11.097   7.222
35741SOL    HW1 9230   8.644   0.065   7.154
35741SOL    HW2 9231   8.659  11.017   7.168
35742SOL     OW 9232   7.786   9.567   7.392
35742SOL    HW1 9233   7.878   9.595   7.396
35742SOL    HW2 9234   7.742   9.653   7.386
35743SOL     OW 9235   8.926  10.735   6.538
35743SOL    HW1 9236   8.865  10.739   6.615
35743SOL    HW2 9237   8.900  10.649   6.500
35744SOL     OW 9238   8.037  10.014   5.839
35744SOL    HW1 9239   8.041  10.102   5.798
35744SOL    HW2 9240   7.968  10.024   5.906
35745SOL     OW 9241   8.708   9.660   6.512
35745SOL    HW1 9242   8.622   9.617   6.527
35745SOL    HW2 9243   8.766   9.615   6.577
35746SOL     OW 9244   9.020  10.947   5.891
35746SOL    HW1 9245   9.068  11.025   5.921
35746SOL    HW2 9246   9.016  10.958   5.794
35747SOL     OW 9247   8.235   9.937   7.065
35747SOL    HW1 9248   8.219   9.896   7.152
35747SOL    HW2 9249   8.188   9.878   7.004
35748SOL     OW 9250   8.837   9.783   7.262
35748SOL    HW1 9251   8.855   9.851   7.329
35748SOL    HW2 9252   8.905   9.716   7.282
35749SOL     OW 9253   8.404  10.205   7.161
35749SOL    HW1 9254   8.445  10.122   7.128
35749SOL    HW2 9255   8.363  10.241   7.080
35750SOL     OW 9256   8.413   9.723   6.823
35750SOL    HW1 9257   8.324   9.725   6.861
35750SOL    HW2 9258   8.399   9.675   6.740
35751SOL     OW 9259   8.483   9.999   5.981
35751SOL    HW1 9260   8.496  10.017   6.075
35751SOL    HW2 9261   8.398   9.949   5.983
35752SOL     OW 9262   7.554  10.115   6.375
35752SOL    HW1 9263   7.628  10.116   6.437
35752SOL    HW2 9264   7.516  10.203   6.387
35753SOL     OW 9265   7.517   0.016   7.158
35753SOL    HW1 9266   7.559  11.098   7.244
35753SOL    HW2 9267   7.447   0.078   7.183
35754SOL     OW 9268   8.319   9.663   5.803
35754SOL    HW1 9269   8.353   9.717   5.731
35754SOL    HW2 9270   8.295   9.583   5.754
35755SOL     OW 9271   9.164   9.894   7.433
35755SOL    HW1 9272   9.164   9.988   7.408
35755SOL    HW2 9273   9.177   9.852   7.347
35756SOL     OW 9274   8.812  10.461   6.147
35756SOL    HW1 9275   8.893  10.463   6.093
35756SOL    HW2 9276   8.755  10.523   6.099
35757SOL     OW 9277   7.996   9.512   6.483
35757SOL    HW1 9278   7.997   9.527   6.579
35757SOL    HW2 9279   7.980   9.601   6.448
35758SOL     OW 9280   8.431  10.757   6.059
35758SOL    HW1 9281   8.353  10.806   6.031
35758SOL    HW2 9282   8.433  10.776   6.153
35759SOL     OW 9283   7.792   0.010   6.459
35759SOL    HW1 9284   7.842  11.033   6.489
35759SOL    HW2 9285   7.861   0.079   6.458
35760SOL     OW 9286   9.240  10.383   6.484
35760SOL    HW1 9287   9.198  10.361   6.400
35760SOL    HW2 9288   9.166  10.375   6.547
35761SOL     OW 9289   8.658  10.870   7.086
35761SOL    HW1 9290   8.655  10.785   7.133
35761SOL    HW2 9291   8.607  10.847   7.006
35762SOL     OW 9292   7.753  10.248   5.840
35762SOL    HW1 9293   7.836  10.268   5.795
35762SOL    HW2 9294   7.723  10.169   5.793
35763SOL     OW 9295   8.916  10.060   6.311
35763SOL    HW1 9296   8.922  10.022   6.401
35763SOL    HW2 9297   8.995  10.117   6.307
35764SOL     OW 9298   7.930  10.536   7.298
35764SOL    HW1 9299   7.878  10.560   7.217
35764SOL    HW2 9300   7.864  10.555   7.367
35765SOL     OW 9301   8.535  11.072   5.852
35765SOL    HW1 9302   8.458  11.033   5.895
35765SOL    HW2 9303   8.541  11.026   5.767
35766SOL     OW 9304   7.622   9.588   7.066
35766SOL    HW1 9305   7.548   9.648   7.079
35766SOL    HW2 9306   7.590   9.502   7.099
35767SOL     OW 9307   9.067  10.694   5.670
35767SOL    HW1 9308   9.016  10.776   5.668
35767SOL    HW2 9309   9.000  10.627   5.652
35768SOL     OW 9310   8.838   9.438   6.032
35768SOL    HW1 9311   8.826   9.391   5.947
35768SOL    HW2 9312   8.935   9.447   6.036
35769SOL     OW 9313   7.850  10.005   6.047
35769SOL    HW1 9314   7.875   9.913   6.067
35769SOL    HW2 9315   7.755  10.002   6.065
35770SOL     OW 9316   8.990   9.569   7.318
35770SOL    HW1 9317   8.989   9.571   7.417
35770SOL    HW2 9318   8.923   9.501   7.301
35771SOL     OW 9319   8.066   9.434   5.694
35771SOL    HW1 9320   8.143   9.467   5.645
35771SOL    HW2 9321   8.025   9.377   5.626
35772SOL     OW 9322   8.223   9.573   7.319
35772SOL    HW1 9323   8.303   9.518   7.332
35772SOL    HW2 9324   8.171   9.553   7.398
35773SOL     OW 9325   8.301  10.775   6.802
35773SOL    HW1 9326   8.304  10.810   6.711
35773SOL    HW2 9327   8.394  10.779   6.828
35774SOL     OW 9328   8.781   9.907   7.015
35774SOL    HW1 9329   8.824   9.873   7.096
35774SOL    HW2 9330   8.831   9.990   6.999
35775SOL     OW 9331   8.273  10.704   6.517
35775SOL    HW1 9332   8.364  10.699   6.482
35775SOL    HW2 9333   8.220  10.721   6.438
35776SOL     OW 9334   8.390   9.829   6.495
35776SOL    HW1 9335   8.366   9.817   6.400
35776SOL    HW2 9336   8.421   9.740   6.516
35777SOL     OW 9337   8.013   9.357   6.092
35777SOL    HW1 9338   7.935   9.367   6.150
35777SOL    HW2 9339   8.002   9.436   6.033
35778SOL     OW 9340   8.890  10.491   5.624
35778SOL    HW1 9341   8.920  10.417   5.682
35778SOL    HW2 9342   8.797  10.501   5.650
35779SOL     OW 9343   7.734   9.341   5.770
35779SOL    HW1 9344   7.797   9.412   5.750
35779SOL    HW2 9345   7.794   9.276   5.813
35780SOL     OW 9346   8.381   9.567   6.071
35780SOL    HW1 9347   8.362   9.609   5.985
35780SOL    HW2 9348   8.477   9.580   6.078
35781SOL     OW 9349   8.528   9.988   7.063
35781SOL    HW1 9350   8.476   9.907   7.061
35781SOL    HW2 9351   8.620   9.956   7.058
35782SOL     OW 9352   8.681  10.880   6.399
35782SOL    HW1 9353   8.629  10.959   6.382
35782SOL    HW2 9354   8.759  10.914   6.443
35783SOL     OW 9355   7.912  10.467   6.321
35783SOL    HW1 9356   7.840  10.442   6.383
35783SOL    HW2 9357   7.877  10.438   6.235
35784SOL     OW 9358   8.519   9.861   5.601
35784SOL    HW1 9359   8.460   9.938   5.597
35784SOL    HW2 9360   8.567   9.872   5.685
35785SOL     OW 9361   7.515   9.865   6.981
35785SOL    HW1 9362   7.610   9.853   6.963
35785SOL    HW2 9363   7.515   9.944   7.039
35786SOL     OW 9364   8.015   9.545   6.755
35786SOL    HW1 9365   8.060   9.471   6.796
35786SOL    HW2 9366   7.923   9.531   6.785
35787SOL     OW 9367   8.327   9.777   6.248
35787SOL    HW1 9368   8.272   9.822   6.183
35787SOL    HW2 9369   8.349   9.695   6.200
35788SOL     OW 9370   8.476   9.376   6.347
35788SOL    HW1 9371   8.425   9.365   6.265
35788SOL    HW2 9372   8.449   9.299   6.399
35789SOL     OW 9373   8.869  10.486   6.465
35789SOL    HW1 9374   8.798  10.426   6.490
35789SOL    HW2 9375   8.874  10.472   6.369
35790SOL     OW 9376   8.949   9.897   6.549
35790SOL    HW1 9377   8.885   9.827   6.567
35790SOL    HW2 9378   9.005   9.897   6.630
35791SOL     OW 9379   9.285  10.129   5.988
35791SOL    HW1 9380   9.345  10.075   6.043
35791SOL    HW2 9381   9.268  10.068   5.914
35792SOL     OW 9382   7.929  10.746   5.774
35792SOL    HW1 9383   7.858  10.706   5.827
35792SOL    HW2 9384   7.900  10.719   5.686
35793SOL     OW 9385   9.114  10.589   6.249
35793SOL    HW1 9386   9.210  10.605   6.252
35793SOL    HW2 9387   9.077  10.677   6.268
35794SOL     OW 9388   8.855   9.910   5.648
35794SOL    HW1 9389   8.807   9.878   5.727
35794SOL    HW2 9390   8.943   9.873   5.663
35795SOL     OW 9391   7.968   9.549   5.909
35795SOL    HW1 9392   8.012   9.506   5.832
35795SOL    HW2 9393   7.937   9.632   5.868
35796SOL     OW 9394   9.192  10.517   7.180
35796SOL    HW1 9395   9.277  10.479   7.207
35796SOL    HW2 9396   9.205  10.611   7.197
35797SOL     OW 9397   8.524  10.675   6.942
35797SOL    HW1 9398   8.445  10.630   6.977
35797SOL    HW2 9399   8.598  10.622   6.978
35798SOL     OW 9400   9.038  10.971   7.242
35798SOL    HW1 9401   9.045  11.027   7.162
35798SOL    HW2 9402   9.119  10.917   7.235
35799SOL     OW 9403   8.543  10.505   6.700
35799SOL    HW1 9404   8.498  10.565   6.760
35799SOL    HW2 9405   8.534  10.553   6.615
35800SOL     OW 9406   9.038  10.395   6.672
35800SOL    HW1 9407   9.049  10.461   6.743
35800SOL    HW2 9408   8.981  10.443   6.609
35801SOL     OW 9409   8.372   9.398   6.985
35801SOL    HW1 9410   8.404   9.382   6.894
35801SOL    HW2 9411   8.446   9.449   7.023
35802SOL     OW 9412   8.453  10.422   7.327
35802SOL    HW1 9413   8.360  10.443   7.346
35802SOL    HW2 9414   8.444  10.348   7.264
35803SOL     OW 9415   8.149  10.392   5.926
35803SOL    HW1 9416   8.134  10.367   6.019
35803SOL    HW2 9417   8.229  10.338   5.906
35804SOL     OW 9418   7.869  10.120   6.843
35804SOL    HW1 9419   7.943  10.125   6.907
35804SOL    HW2 9420   7.832  10.032   6.861
35805SOL     OW 9421   8.728   9.701   6.848
35805SOL    HW1 9422   8.748   9.778   6.904
35805SOL    HW2 9423   8.639   9.720   6.816
35806SOL     OW 9424   7.514  10.877   6.935
35806SOL    HW1 9425   7.507  10.933   6.857
35806SOL    HW2 9426   7.611  10.873   6.949
35807SOL     OW 9427   7.814  10.391   6.083
35807SOL    HW1 9428   7.830  10.464   6.022
35807SOL    HW2 9429   7.796  10.317   6.023
35808SOL     OW 9430   7.986   9.854   6.435
35808SOL    HW1 9431   8.018   9.911   6.362
35808SOL    HW2 9432   8.044   9.881   6.509
35809SOL     OW 9433   8.685  10.662   5.965
35809SOL    HW1 9434   8.742  10.729   6.009
35809SOL    HW2 9435   8.596  10.691   5.992
35810SOL     OW 9436   8.771  10.729   6.755
35810SOL    HW1 9437   8.819  10.762   6.834
35810SOL    HW2 9438   8.702  10.674   6.793
35811SOL     OW 9439   9.026   9.911   6.056
35811SOL    HW1 9440   8.972   9.965   6.116
35811SOL    HW2 9441   9.066   9.978   5.999
35812SOL     OW 9442   7.777  10.828   6.918
35812SOL    HW1 9443   7.768  10.794   6.827
35812SOL    HW2 9444   7.872  10.849   6.918
35813SOL     OW 9445   7.876  10.034   7.224
35813SOL    HW1 9446   7.925  10.091   7.162
35813SOL    HW2 9447   7.930   9.954   7.223
35814SOL     OW 9448   9.045  10.036   7.215
35814SOL    HW1 9449   9.014  10.095   7.285
35814SOL    HW2 9450   9.102  10.096   7.164
35815SOL     OW 9451   8.442   9.421   7.345
35815SOL    HW1 9452   8.504   9.493   7.325
35815SOL    HW2 9453   8.484   9.348   7.297
35816SOL     OW 9454   7.945   9.329   7.345
35816SOL    HW1 9455   7.907   9.272   7.276
35816SOL    HW2 9456   7.878   9.398   7.354
35817SOL     OW 9457   8.032  10.206   6.623
35817SOL    HW1 9458   8.069  10.296   6.625
35817SOL    HW2 9459   7.986  10.197   6.708
35818SOL     OW 9460   8.797  10.178   6.604
35818SOL    HW1 9461   8.716  10.138   6.571
35818SOL    HW2 9462   8.855  10.101   6.616
35819SOL     OW 9463   8.678   9.833   5.858
35819SOL    HW1 9464   8.675   9.756   5.918
35819SOL    HW2 9465   8.612   9.891   5.900
35820SOL     OW 9466   7.757   9.505   6.834
35820SOL    HW1 9467   7.705   9.530   6.913
35820SOL    HW2 9468   7.733   9.410   6.826
35821SOL     OW 9469   7.481  10.612   6.859
35821SOL    HW1 9470   7.509  10.556   6.933
35821SOL    HW2 9471   7.479  10.701   6.898
35822SOL     OW 9472   8.162   9.947   6.625
35822SOL    HW1 9473   8.246   9.921   6.583
35822SOL    HW2 9474   8.149  10.041   6.602
35823SOL     OW 9475   7.764   9.386   6.192
35823SOL    HW1 9476   7.728   9.473   6.213
35823SOL    HW2 9477   7.765   9.343   6.279
35824SOL     OW 9478   9.059   9.678   5.934
35824SOL    HW1 9479   9.085   9.611   5.999
35824SOL    HW2 9480   9.039   9.756   5.990
35825SOL     OW 9481   8.512  10.064   6.561
35825SOL    HW1 9482   8.489  10.081   6.655
35825SOL    HW2 9483   8.482   9.971   6.550
35826SOL     OW 9484   8.431  10.850   7.301
35826SOL    HW1 9485   8.436  10.910   7.226
35826SOL    HW2 9486   8.475  10.770   7.266
35827SOL     OW 9487   9.282  10.827   7.196
35827SOL    HW1 9488   9.310  10.838   7.103
35827SOL    HW2 9489   9.367  10.832   7.243
35828SOL     OW 9490   7.789  10.181   7.426
35828SOL    HW1 9491   7.866  10.236   7.447
35828SOL    HW2 9492   7.825  10.124   7.355
35829SOL     OW 9493   8.958   9.561   5.710
35829SOL    HW1 9494   8.882   9.511   5.743
35829SOL    HW2 9495   8.998   9.599   5.791
35830SOL     OW 9496   8.735  10.156   5.608
35830SOL    HW1 9497   8.761  10.063   5.621
35830SOL    HW2 9498   8.779  10.175   5.522
35831SOL     OW 9499   8.532  10.641   6.440
35831SOL    HW1 9500   8.538  10.570   6.373
35831SOL    HW2 9501   8.597  10.708   6.411
35832SOL     OW 9502   7.734  10.121   6.579
35832SOL    HW1 9503   7.828  10.146   6.570
35832SOL    HW2 9504   7.741  10.028   6.605
35833SOL     OW 9505   7.774   9.844   6.593
35833SOL    HW1 9506   7.743   9.752   6.580
35833SOL    HW2 9507   7.843   9.852   6.524
35834SOL     OW 9508   8.597   9.675   7.276
35834SOL    HW1 9509   8.555   9.728   7.347
35834SOL    HW2 9510   8.687   9.715   7.274
35835SOL     OW 9511   8.619   9.520   7.053
35835SOL    HW1 9512   8.616   9.581   7.129
35835SOL    HW2 9513   8.663   9.574   6.986
35836SOL     OW 9514   7.450  10.633   5.765
35836SOL    HW1 9515   7.359  10.658   5.739
35836SOL    HW2 9516   7.437  10.546   5.806
35837SOL     OW 9517   7.963  10.905   6.522
35837SOL    HW1 9518   8.045  10.955   6.536
35837SOL    HW2 9519   7.995  10.833   6.464
35838SOL     OW 9520   8.442  10.098   6.817
35838SOL    HW1 9521   8.490  10.062   6.894
35838SOL    HW2 9522   8.351  10.076   6.838
35839SOL     OW 9523   7.476   9.838   6.698
35839SOL    HW1 9524   7.552   9.818   6.642
35839SOL    HW2 9525   7.516   9.854   6.784
35840SOL     OW 9526   7.660   9.797   7.275
35840SOL    HW1 9527   7.734   9.771   7.217
35840SOL    HW2 9528   7.631   9.882   7.236
35841SOL     OW 9529   8.787  10.236   7.223
35841SOL    HW1 9530   8.849  10.309   7.237
35841SOL    HW2 9531   8.817  10.198   7.139
35842SOL     OW 9532   8.249   9.866   5.973
35842SOL    HW1 9533   8.262   9.793   5.909
35842SOL    HW2 9534   8.176   9.915   5.932
35843SOL     OW 9535   9.091   9.923   6.778
35843SOL    HW1 9536   9.067   9.870   6.855
35843SOL    HW2 9537   9.176   9.884   6.751
35844SOL     OW 9538   7.668  10.830   7.316
35844SOL    HW1 9539   7.666  10.900   7.382
35844SOL    HW2 9540   7.684  10.751   7.371
35845SOL     OW 9541   8.113   9.795   6.856
35845SOL    HW1 9542   8.079   9.714   6.816
35845SOL    HW2 9543   8.123   9.855   6.779
35846SOL     OW 9544   7.887   9.774   5.788
35846SOL    HW1 9545   7.954   9.844   5.789
35846SOL    HW2 9546   7.806   9.826   5.780
35847SOL     OW 9547   7.562  10.440   7.049
35847SOL    HW1 9548   7.586  10.387   7.128
35847SOL    HW2 9549   7.592  10.381   6.976
35848SOL     OW 9550   8.770  10.342   6.820
35848SOL    HW1 9551   8.790  10.291   6.738
35848SOL    HW2 9552   8.690  10.390   6.792
35849SOL     OW 9553   8.753  10.183   5.879
35849SOL    HW1 9554   8.671  10.144   5.913
35849SOL    HW2 9555   8.739  10.182   5.782
35850SOL     OW 9556   9.230  11.032   6.754
35850SOL    HW1 9557   9.271  11.062   6.672
35850SOL    HW2 9558   9.199  10.941   6.730
35851SOL     OW 9559   8.751  11.091   6.739
35851SOL    HW1 9560   8.784  11.034   6.669
35851SOL    HW2 9561   8.655  11.075   6.740
35852SOL     OW 9562   7.551  10.582   6.601
35852SOL    HW1 9563   7.521  10.587   6.694
35852SOL    HW2 9564   7.483  10.526   6.560
35853SOL     OW 9565   8.138  10.966   7.302
35853SOL    HW1 9566   8.077  11.041   7.311
35853SOL    HW2 9567   8.213  11.006   7.257
35854SOL     OW 9568   9.129   9.446   6.079
35854SOL    HW1 9569   9.205   9.435   6.021
35854SOL    HW2 9570   9.131   9.365   6.133
35855SOL     OW 9571   8.837  10.871   6.069
35855SOL    HW1 9572   8.903  10.893   6.000
35855SOL    HW2 9573   8.794  10.957   6.081
35856SOL     OW 9574   7.596   0.007   7.428
35856SOL    HW1 9575   7.545  11.033   7.464
35856SOL    HW2 9576   7.647   0.034   7.506
35857SOL     OW 9577   8.704  10.218   6.244
35857SOL    HW1 9578   8.783  10.164   6.267
35857SOL    HW2 9579   8.746  10.297   6.205
35858SOL     OW 9580   8.263  10.576   7.019
35858SOL    HW1 9581   8.219  10.618   7.097
35858SOL    HW2 9582   8.226  10.630   6.947
35859SOL     OW 9583   8.114  10.933   5.720
35859SOL    HW1 9584   8.133  10.917   5.627
35859SOL    HW2 9585   8.054  10.859   5.744
35860SOL     OW 9586   9.290   9.475   6.563
35860SOL    HW1 9587   9.308   9.387   6.526
35860SOL    HW2 9588   9.204   9.499   6.522
35861SOL     OW 9589   7.693   9.633   6.290
35861SOL    HW1 9590   7.611   9.682   6.269
35861SOL    HW2 9591   7.699   9.640   6.386
35862SOL     OW 9592   8.649  10.935   5.619
35862SOL    HW1 9593   8.647  10.842   5.643
35862SOL    HW2 9594   8.584  10.941   5.547
35863SOL     OW 9595   8.273  10.317   6.940
35863SOL    HW1 9596   8.317  10.319   6.855
35863SOL    HW2 9597   8.269  10.412   6.965
35864SOL     OW 9598   8.363  10.246   5.871
35864SOL    HW1 9599   8.436  10.271   5.811
35864SOL    HW2 9600   8.390  10.159   5.903
35865SOL     OW 9601   8.976  10.964   5.629
35865SOL    HW1 9602   8.883  10.941   5.621
35865SOL    HW2 9603   9.004  10.967   5.535
35866SOL     OW 9604   7.787  10.587   7.078
35866SOL    HW1 9605   7.784  10.663   7.018
35866SOL    HW2 9606   7.706  10.539   7.055
35867SOL     OW 9607   9.059  10.607   6.872
35867SOL    HW1 9608   9.096  10.581   6.957
35867SOL    HW2 9609   9.002  10.681   6.899
35868SOL     OW 9610   8.496  10.422   6.285
35868SOL    HW1 9611   8.432  10.369   6.335
35868SOL    HW2 9612   8.556  10.355   6.250
35869SOL     OW 9613   8.476   9.537   6.567
35869SOL    HW1 9614   8.467   9.490   6.481
35869SOL    HW2 9615   8.476   9.461   6.630
35870SOL     OW 9616   8.049  10.803   6.084
35870SOL    HW1 9617   8.071  10.769   5.996
35870SOL    HW2 9618   7.997  10.881   6.062
35871SOL     OW 9619   9.153   9.684   6.967
35871SOL    HW1 9620   9.217   9.758   6.967
35871SOL    HW2 9621   9.202   9.617   6.915
35872SOL     OW 9622   7.701  10.653   5.877
35872SOL    HW1 9623   7.606  10.659   5.854
35872SOL    HW2 9624   7.701  10.700   5.963
35873SOL     OW 9625   7.581  10.308   7.280
35873SOL    HW1 9626   7.503  10.305   7.338
35873SOL    HW2 9627   7.652  10.277   7.339
35874SOL     OW 9628   8.126   9.495   7.070
35874SOL    HW1 9629   8.212   9.460   7.039
35874SOL    HW2 9630   8.151   9.535   7.155
35875SOL     OW 9631   7.546   9.654   5.630
35875SOL    HW1 9632   7.455   9.646   5.599
35875SOL    HW2 9633   7.578   9.728   5.576
35876SOL     OW 9634   8.899  10.161   6.971
35876SOL    HW1 9635   8.855  10.229   6.916
35876SOL    HW2 9636   8.991  10.190   6.969
35877SOL     OW 9637   7.494   9.467   5.874
35877SOL    HW1 9638   7.490   9.556   5.836
35877SOL    HW2 9639   7.579   9.435   5.838
35878SOL     OW 9640   8.636  10.635   5.695
35878SOL    HW1 9641   8.550  10.592   5.700
35878SOL    HW2 9642   8.663  10.636   5.790
35879SOL     OW 9643   8.071  10.140   7.014
35879SOL    HW1 9644   8.129  10.216   7.000
35879SOL    HW2 9645   8.137  10.070   7.030
35880SOL     OW 9646   8.951  11.056   6.537
35880SOL    HW1 9647   8.975   0.022   6.472
35880SOL    HW2 9648   9.018  11.067   6.605
35881SOL     OW 9649   8.156   9.854   7.308
35881SOL    HW1 9650   8.212   9.919   7.355
35881SOL    HW2 9651   8.190   9.768   7.337
35882SOL     OW 9652   8.929  10.469   7.221
35882SOL    HW1 9653   8.912  10.485   7.317
35882SOL    HW2 9654   9.027  10.480   7.218
35883SOL     OW 9655   9.163  10.183   6.818
35883SOL    HW1 9656   9.133  10.094   6.791
35883SOL    HW2 9657   9.115  10.241   6.757
35884SOL     OW 9658   8.656   9.640   6.061
35884SOL    HW1 9659   8.720   9.566   6.052
35884SOL    HW2 9660   8.696   9.692   6.133
35885SOL     OW 9661   8.053  10.039   6.246
35885SOL    HW1 9662   8.092  10.126   6.231
35885SOL    HW2 9663   7.978  10.039   6.183
35886SOL     OW 9664   9.217   9.674   7.224
35886SOL    HW1 9665   9.180   9.689   7.135
35886SOL    HW2 9666   9.140   9.636   7.270
35887SOL     OW 9667   9.193  10.215   7.085
35887SOL    HW1 9668   9.193  10.309   7.107
35887SOL    HW2 9669   9.210  10.214   6.989
35888SOL     OW 9670   8.301  10.669   5.624
35888SOL    HW1 9671   8.269  10.688   5.714
35888SOL    HW2 9672   8.337  10.754   5.593
35889SOL     OW 9673   8.334  10.254   6.428
35889SOL    HW1 9674   8.385  10.187   6.475
35889SOL    HW2 9675   8.303  10.312   6.499
35890SOL     OW 9676   8.544  10.320   5.681
35890SOL    HW1 9677   8.516  10.368   5.601
35890SOL    HW2 9678   8.609  10.257   5.643
35891SOL     OW 9679   9.354  10.856   6.436
35891SOL    HW1 9680   9.270  10.864   6.390
35891SOL    HW2 9681   9.334  10.792   6.506
35892SOL     OW 9682   7.715  10.611   7.463
35892SOL    HW1 9683   7.630  10.568   7.446
35892SOL    HW2 9684   7.708  10.626   7.560
35893SOL     OW 9685   7.531  10.564   6.240
35893SOL    HW1 9686   7.538  10.511   6.320
35893SOL    HW2 9687   7.581  10.511   6.176
35894SOL     OW 9688   8.120  10.704   7.209
35894SOL    HW1 9689   8.050  10.648   7.247
35894SOL    HW2 9690   8.106  10.790   7.253
35895SOL     OW 9691   9.275   9.479   6.824
35895SOL    HW1 9692   9.281   9.383   6.828
35895SOL    HW2 9693   9.284   9.495   6.728
35896SOL     OW 9694   7.884   9.744   6.114
35896SOL    HW1 9695   7.927   9.674   6.063
35896SOL    HW2 9696   7.836   9.696   6.184
35897SOL     OW 9697   9.151  10.788   6.677
35897SOL    HW1 9698   9.070  10.775   6.624
35897SOL    HW2 9699   9.140  10.721   6.746
35898SOL     OW 9700   7.775   9.842   6.874
35898SOL    HW1 9701   7.851   9.802   6.918
35898SOL    HW2 9702   7.792   9.820   6.780
35899SOL     OW 9703   8.270  10.886   6.268
35899SOL    HW1 9704   8.271  10.965   6.210
35899SOL    HW2 9705   8.180  10.852   6.258
35900SOL     OW 9706   8.876   9.551   6.686
35900SOL    HW1 9707   8.908   9.471   6.730
35900SOL    HW2 9708   8.832   9.600   6.758
35901SOL     OW 9709   8.466   9.313   6.737
35901SOL    HW1 9710   8.409   9.239   6.710
35901SOL    HW2 9711   8.555   9.272   6.731
35902SOL     OW 9712   8.231  10.651   5.886
35902SOL    HW1 9713   8.189  10.564   5.897
35902SOL    HW2 9714   8.310  10.642   5.941
35903SOL     OW 9715   8.047  10.867   6.858
35903SOL    HW1 9716   8.067  10.955   6.892
35903SOL    HW2 9717   8.137  10.836   6.835
35904SOL     OW 9718   8.768   9.337   5.778
35904SOL    HW1 9719   8.773   9.292   5.693
35904SOL    HW2 9720   8.676   9.312   5.805
35905SOL     OW 9721   8.762   9.786   6.282
35905SOL    HW1 9722   8.700   9.861   6.279
35905SOL    HW2 9723   8.739   9.745   6.368
35906SOL     OW 9724   9.049   9.523   6.454
35906SOL    HW1 9725   8.971   9.534   6.512
35906SOL    HW2 9726   9.047   9.603   6.400
35907SOL     OW 9727   7.487  10.381   5.910
35907SOL    HW1 9728   7.574  10.362   5.872
35907SOL    HW2 9729   7.459  10.292   5.937
35908SOL     OW 9730   7.626   9.896   7.541
35908SOL    HW1 9731   7.585   9.964   7.596
35908SOL    HW2 9732   7.686   9.945   7.483
35909SOL     OW 9733   7.675   9.585   8.442
35909SOL    HW1 9734   7.697   9.567   8.535
35909SOL    HW2 9735   7.586   9.545   8.434
35910SOL     OW 9736   7.443   9.715   8.073
35910SOL    HW1 9737   7.363   9.742   8.123
35910SOL    HW2 9738   7.415   9.628   8.041
35911SOL     OW 9739   8.004  10.580   8.615
35911SOL    HW1 9740   7.918  10.580   8.571
35911SOL    HW2 9741   8.004  10.668   8.657
35912SOL     OW 9742   9.014  10.839   8.162
35912SOL    HW1 9743   8.961  10.812   8.239
35912SOL    HW2 9744   8.953  10.832   8.087
35913SOL     OW 9745   8.580   9.980   8.162
35913SOL    HW1 9746   8.619  10.067   8.141
35913SOL    HW2 9747   8.535  10.001   8.245
35914SOL     OW 9748   9.227   9.911   7.689
35914SOL    HW1 9749   9.202   9.907   7.594
35914SOL    HW2 9750   9.177   9.837   7.726
35915SOL     OW 9751   8.204  10.456   8.466
35915SOL    HW1 9752   8.136  10.494   8.525
35915SOL    HW2 9753   8.236  10.538   8.423
35916SOL     OW 9754   8.326  10.079   9.251
35916SOL    HW1 9755   8.307  10.146   9.318
35916SOL    HW2 9756   8.347  10.132   9.171
35917SOL     OW 9757   8.142  10.324   8.086
35917SOL    HW1 9758   8.202  10.311   8.161
35917SOL    HW2 9759   8.069  10.374   8.127
35918SOL     OW 9760   8.170  10.450   9.245
35918SOL    HW1 9761   8.196  10.538   9.278
35918SOL    HW2 9762   8.084  10.470   9.204
35919SOL     OW 9763   7.766  10.753   8.523
35919SOL    HW1 9764   7.693  10.711   8.475
35919SOL    HW2 9765   7.816  10.799   8.454
35920SOL     OW 9766   8.918  10.795   8.830
35920SOL    HW1 9767   8.942  10.885   8.857
35920SOL    HW2 9768   8.857  10.769   8.900
35921SOL     OW 9769   7.885   9.702   8.975
35921SOL    HW1 9770   7.958   9.639   8.966
35921SOL    HW2 9771   7.808   9.648   8.950
35922SOL     OW 9772   9.061   9.759   8.176
35922SOL    HW1 9773   8.994   9.787   8.112
35922SOL    HW2 9774   9.049   9.826   8.244
35923SOL     OW 9775   8.600  10.651   9.126
35923SOL    HW1 9776   8.629  10.658   9.218
35923SOL    HW2 9777   8.556  10.563   9.128
35924SOL     OW 9778   7.660  10.811   8.044
35924SOL    HW1 9779   7.712  10.827   7.964
35924SOL    HW2 9780   7.631  10.721   8.030
35925SOL     OW 9781   7.723  10.406   8.351
35925SOL    HW1 9782   7.707  10.327   8.405
35925SOL    HW2 9783   7.670  10.473   8.397
35926SOL     OW 9784   8.022  10.301   7.567
35926SOL    HW1 9785   8.075  10.345   7.497
35926SOL    HW2 9786   8.064  10.340   7.647
35927SOL     OW 9787   9.060   9.423   8.935
35927SOL    HW1 9788   9.022   9.500   8.890
35927SOL    HW2 9789   9.067   9.457   9.026
35928SOL     OW 9790   7.565   9.957   8.010
35928SOL    HW1 9791   7.529   9.869   8.029
35928SOL    HW2 9792   7.560  10.002   8.097
35929SOL     OW 9793   7.507  10.889   7.558
35929SOL    HW1 9794   7.496  10.793   7.574
35929SOL    HW2 9795   7.506  10.924   7.648
35930SOL     OW 9796   9.136  10.222   8.101
35930SOL    HW1 9797   9.196  10.180   8.037
35930SOL    HW2 9798   9.095  10.289   8.044
35931SOL     OW 9799   9.104  10.422   7.914
35931SOL    HW1 9800   9.191  10.424   7.869
35931SOL    HW2 9801   9.113  10.492   7.981
35932SOL     OW 9802   7.569  10.041   9.032
35932SOL    HW1 9803   7.661  10.070   9.041
35932SOL    HW2 9804   7.520  10.123   9.050
35933SOL     OW 9805   8.038  10.702   8.218
35933SOL    HW1 9806   8.001  10.612   8.222
35933SOL    HW2 9807   8.028  10.719   8.122
35934SOL     OW 9808   8.747  10.557   8.872
35934SOL    HW1 9809   8.777  10.489   8.809
35934SOL    HW2 9810   8.793  10.530   8.954
35935SOL     OW 9811   8.276   9.298   7.955
35935SOL    HW1 9812   8.310   9.389   7.947
35935SOL    HW2 9813   8.180   9.314   7.961
35936SOL     OW 9814   7.629  10.289   8.703
35936SOL    HW1 9815   7.716  10.248   8.686
35936SOL    HW2 9816   7.568  10.232   8.654
35937SOL     OW 9817   8.925  10.346   7.683
35937SOL    HW1 9818   8.872  10.272   7.717
35937SOL    HW2 9819   9.015  10.326   7.713
35938SOL     OW 9820   8.652   0.007   9.077
35938SOL    HW1 9821   8.645   0.071   9.004
35938SOL    HW2 9822   8.667  11.025   9.027
35939SOL     OW 9823   7.788   9.547   9.225
35939SOL    HW1 9824   7.851   9.616   9.248
35939SOL    HW2 9825   7.709   9.578   9.273
35940SOL     OW 9826   8.916  10.729   8.403
35940SOL    HW1 9827   8.855  10.737   8.479
35940SOL    HW2 9828   8.892  10.642   8.368
35941SOL     OW 9829   8.039  10.016   7.698
35941SOL    HW1 9830   8.045  10.103   7.657
35941SOL    HW2 9831   7.976  10.033   7.770
35942SOL     OW 9832   8.725   9.640   8.365
35942SOL    HW1 9833   8.634   9.610   8.387
35942SOL    HW2 9834   8.777   9.601   8.438
35943SOL     OW 9835   9.023  10.938   7.748
35943SOL    HW1 9836   9.069  11.018   7.774
35943SOL    HW2 9837   9.013  10.949   7.651
35944SOL     OW 9838   8.253   9.933   8.901
35944SOL    HW1 9839   8.233   9.898   8.991
35944SOL    HW2 9840   8.198   9.874   8.845
35945SOL     OW 9841   8.838   9.782   9.127
35945SOL    HW1 9842   8.849   9.841   9.204
35945SOL    HW2 9843   8.900   9.709   9.149
35946SOL     OW 9844   8.410  10.205   9.024
35946SOL    HW1 9845   8.449  10.123   8.988
35946SOL    HW2 9846   8.368  10.243   8.944
35947SOL     OW 9847   8.446   9.712   8.683
35947SOL    HW1 9848   8.372   9.733   8.740
35947SOL    HW2 9849   8.404   9.673   8.606
35948SOL     OW 9850   8.491   9.995   7.854
35948SOL    HW1 9851   8.509  10.013   7.948
35948SOL    HW2 9852   8.407   9.944   7.858
35949SOL     OW 9853   7.547  10.104   8.237
35949SOL    HW1 9854   7.613  10.108   8.308
35949SOL    HW2 9855   7.496  10.184   8.252
35950SOL     OW 9856   7.524   0.069   9.035
35950SOL    HW1 9857   7.557   0.033   9.119
35950SOL    HW2 9858   7.428   0.055   9.042
35951SOL     OW 9859   8.340   9.691   7.647
35951SOL    HW1 9860   8.386   9.751   7.585
35951SOL    HW2 9861   8.366   9.605   7.613
35952SOL     OW 9862   9.165   9.876   9.288
35952SOL    HW1 9863   9.127   9.954   9.243
35952SOL    HW2 9864   9.204   9.829   9.213
35953SOL     OW 9865   8.810  10.452   8.006
35953SOL    HW1 9866   8.891  10.449   7.952
35953SOL    HW2 9867   8.754  10.510   7.951
35954SOL     OW 9868   7.992   9.496   8.338
35954SOL    HW1 9869   8.004   9.513   8.434
35954SOL    HW2 9870   7.987   9.586   8.302
35955SOL     OW 9871   8.437  10.776   7.933
35955SOL    HW1 9872   8.359  10.805   7.882
35955SOL    HW2 9873   8.412  10.800   8.023
35956SOL     OW 9874   7.790   0.004   8.320
35956SOL    HW1 9875   7.843  11.028   8.344
35956SOL    HW2 9876   7.858   0.074   8.314
35957SOL     OW 9877   9.247  10.384   8.319
35957SOL    HW1 9878   9.203  10.354   8.237
35957SOL    HW2 9879   9.173  10.382   8.382
35958SOL     OW 9880   8.653  10.871   8.948
35958SOL    HW1 9881   8.655  10.789   8.998
35958SOL    HW2 9882   8.605  10.844   8.868
35959SOL     OW 9883   7.755  10.252   7.696
35959SOL    HW1 9884   7.838  10.297   7.675
35959SOL    HW2 9885   7.736  10.208   7.611
35960SOL     OW 9886   8.924  10.056   8.171
35960SOL    HW1 9887   8.921  10.025   8.263
35960SOL    HW2 9888   9.004  10.112   8.170
35961SOL     OW 9889   7.930  10.554   9.165
35961SOL    HW1 9890   7.880  10.568   9.081
35961SOL    HW2 9891   7.859  10.566   9.230
35962SOL     OW 9892   8.524  11.076   7.702
35962SOL    HW1 9893   8.458  11.016   7.739
35962SOL    HW2 9894   8.543  11.036   7.616
35963SOL     OW 9895   7.618   9.598   8.946
35963SOL    HW1 9896   7.543   9.652   8.975
35963SOL    HW2 9897   7.623   9.531   9.015
35964SOL     OW 9898   9.073  10.695   7.527
35964SOL    HW1 9899   9.014  10.771   7.523
35964SOL    HW2 9900   9.013  10.621   7.507
35965SOL     OW 9901   8.844   9.427   7.894
35965SOL    HW1 9902   8.837   9.382   7.808
35965SOL    HW2 9903   8.939   9.446   7.900
35966SOL     OW 9904   7.843  10.001   7.904
35966SOL    HW1 9905   7.862   9.910   7.935
35966SOL    HW2 9906   7.749  10.009   7.927
35967SOL     OW 9907   8.983   9.564   9.176
35967SOL    HW1 9908   8.985   9.570   9.274
35967SOL    HW2 9909   8.920   9.491   9.164
35968SOL     OW 9910   8.081   9.445   7.539
35968SOL    HW1 9911   8.157   9.391   7.564
35968SOL    HW2 9912   8.035   9.387   7.475
35969SOL     OW 9913   8.219   9.568   9.176
35969SOL    HW1 9914   8.296   9.508   9.188
35969SOL    HW2 9915   8.167   9.552   9.257
35970SOL     OW 9916   8.336  10.830   8.615
35970SOL    HW1 9917   8.323  10.787   8.528
35970SOL    HW2 9918   8.400  10.771   8.660
35971SOL     OW 9919   8.782   9.899   8.876
35971SOL    HW1 9920   8.819   9.866   8.960
35971SOL    HW2 9921   8.833   9.980   8.860
35972SOL     OW 9922   8.286  10.700   8.382
35972SOL    HW1 9923   8.371  10.688   8.335
35972SOL    HW2 9924   8.224  10.719   8.309
35973SOL     OW 9925   8.384   9.831   8.359
35973SOL    HW1 9926   8.359   9.820   8.264
35973SOL    HW2 9927   8.414   9.741   8.380
35974SOL     OW 9928   8.009   9.359   7.949
35974SOL    HW1 9929   7.937   9.371   8.012
35974SOL    HW2 9930   7.995   9.435   7.888
35975SOL     OW 9931   8.887  10.502   7.479
35975SOL    HW1 9932   8.919  10.435   7.543
35975SOL    HW2 9933   8.797  10.514   7.511
35976SOL     OW 9934   7.729   9.371   7.650
35976SOL    HW1 9935   7.793   9.439   7.624
35976SOL    HW2 9936   7.790   9.303   7.686
35977SOL     OW 9937   8.378   9.558   7.941
35977SOL    HW1 9938   8.358   9.608   7.861
35977SOL    HW2 9939   8.474   9.573   7.949
35978SOL     OW 9940   8.534   9.995   8.911
35978SOL    HW1 9941   8.479   9.915   8.915
35978SOL    HW2 9942   8.625   9.960   8.904
35979SOL     OW 9943   8.689  10.878   8.245
35979SOL    HW1 9944   8.647  10.958   8.213
35979SOL    HW2 9945   8.754  10.914   8.307
35980SOL     OW 9946   7.921  10.469   8.177
35980SOL    HW1 9947   7.848  10.446   8.238
35980SOL    HW2 9948   7.883  10.448   8.089
35981SOL     OW 9949   8.502   9.840   7.474
35981SOL    HW1 9950   8.463   9.927   7.453
35981SOL    HW2 9951   8.580   9.863   7.528
35982SOL     OW 9952   7.505   9.870   8.841
35982SOL    HW1 9953   7.599   9.854   8.820
35982SOL    HW2 9954   7.513   9.944   8.905
35983SOL     OW 9955   8.015   9.530   8.606
35983SOL    HW1 9956   8.062   9.466   8.659
35983SOL    HW2 9957   7.926   9.528   8.646
35984SOL     OW 9958   8.321   9.776   8.111
35984SOL    HW1 9959   8.279   9.824   8.038
35984SOL    HW2 9960   8.346   9.693   8.068
35985SOL     OW 9961   8.493   9.377   8.223
35985SOL    HW1 9962   8.440   9.373   8.143
35985SOL    HW2 9963   8.461   9.299   8.273
35986SOL     OW 9964   8.868  10.477   8.332
35986SOL    HW1 9965   8.794  10.417   8.347
35986SOL    HW2 9966   8.880  10.469   8.236
35987SOL     OW 9967   8.920   9.905   8.420
35987SOL    HW1 9968   8.869   9.824   8.434
35987SOL    HW2 9969   8.983   9.906   8.494
35988SOL     OW 9970   9.277  10.136   7.853
35988SOL    HW1 9971   9.339  10.078   7.901
35988SOL    HW2 9972   9.267  10.086   7.770
35989SOL     OW 9973   7.935  10.750   7.558
35989SOL    HW1 9974   7.887  10.720   7.639
35989SOL    HW2 9975   7.873  10.717   7.491
35990SOL     OW 9976   9.131  10.592   8.116
35990SOL    HW1 9977   9.228  10.601   8.118
35990SOL    HW2 9978   9.099  10.681   8.137
35991SOL     OW 9979   8.857   9.918   7.503
35991SOL    HW1 9980   8.820   9.882   7.585
35991SOL    HW2 9981   8.951   9.900   7.513
35992SOL     OW 9982   7.967   9.541   7.760
35992SOL    HW1 9983   8.019   9.516   7.682
35992SOL    HW2 9984   7.932   9.627   7.731
35993SOL     OW 9985   9.182  10.521   9.044
35993SOL    HW1 9986   9.275  10.497   9.035
35993SOL    HW2 9987   9.187  10.617   9.051
35994SOL     OW 9988   8.503  10.680   8.795
35994SOL    HW1 9989   8.419  10.646   8.830
35994SOL    HW2 9990   8.569  10.625   8.841
35995SOL     OW 9991   9.039  10.958   9.082
35995SOL    HW1 9992   9.046  11.031   9.018
35995SOL    HW2 9993   9.126  10.916   9.077
35996SOL     OW 9994   8.548  10.505   8.574
35996SOL    HW1 9995   8.498  10.565   8.630
35996SOL    HW2 9996   8.539  10.546   8.486
35997SOL     OW 9997   9.049  10.397   8.521
35997SOL    HW1 9998   9.053  10.462   8.594
35997SOL    HW2 9999   8.982  10.436   8.461
35998SOL     OW10000   8.365   9.404   8.842
35998SOL    HW110001   8.394   9.384   8.751
35998SOL    HW210002   8.444   9.445   8.881
35999SOL     OW10003   8.451  10.430   9.190
35999SOL    HW110004   8.358  10.452   9.207
35999SOL    HW210005   8.442  10.355   9.128
36000SOL     OW10006   8.164  10.387   7.786
36000SOL    HW110007   8.144  10.358   7.876
36000SOL    HW210008   8.240  10.328   7.764
36001SOL     OW10009   7.868  10.123   8.703
36001SOL    HW110010   7.941  10.121   8.768
36001SOL    HW210011   7.825  10.037   8.718
36002SOL     OW10012   8.731   9.694   8.708
36002SOL    HW110013   8.747   9.772   8.765
36002SOL    HW210014   8.639   9.707   8.681
36003SOL     OW10015   7.495  10.874   8.791
36003SOL    HW110016   7.460  10.942   8.732
36003SOL    HW210017   7.591  10.888   8.788
36004SOL     OW10018   7.813  10.394   7.946
36004SOL    HW110019   7.798  10.473   7.890
36004SOL    HW210020   7.801  10.321   7.883
36005SOL     OW10021   7.984   9.849   8.293
36005SOL    HW110022   8.017   9.905   8.219
36005SOL    HW210023   8.048   9.869   8.363
36006SOL     OW10024   8.679  10.663   7.828
36006SOL    HW110025   8.741  10.726   7.869
36006SOL    HW210026   8.594  10.697   7.861
36007SOL     OW10027   8.754  10.751   8.620
36007SOL    HW110028   8.809  10.768   8.699
36007SOL    HW210029   8.694  10.681   8.649
36008SOL     OW10030   9.040   9.922   7.928
36008SOL    HW110031   8.986   9.982   7.981
36008SOL    HW210032   9.074   9.980   7.859
36009SOL     OW10033   7.777  10.828   8.776
36009SOL    HW110034   7.762  10.798   8.684
36009SOL    HW210035   7.874  10.835   8.775
36010SOL     OW10036   7.883  10.033   9.070
36010SOL    HW110037   7.938  10.083   9.007
36010SOL    HW210038   7.917   9.944   9.060
36011SOL     OW10039   9.080  10.075   9.128
36011SOL    HW110040   8.988  10.107   9.126
36011SOL    HW210041   9.118  10.121   9.050
36012SOL     OW10042   8.435   9.419   9.194
36012SOL    HW110043   8.494   9.494   9.181
36012SOL    HW210044   8.487   9.347   9.156
36013SOL     OW10045   7.948   9.324   9.210
36013SOL    HW110046   7.908   9.266   9.142
36013SOL    HW210047   7.886   9.399   9.208
36014SOL     OW10048   8.059  10.198   8.503
36014SOL    HW110049   8.076  10.293   8.498
36014SOL    HW210050   7.990  10.190   8.571
36015SOL     OW10051   8.809  10.181   8.466
36015SOL    HW110052   8.724  10.148   8.436
36015SOL    HW210053   8.859  10.098   8.474
36016SOL     OW10054   8.681   9.827   7.711
36016SOL    HW110055   8.682   9.751   7.771
36016SOL    HW210056   8.629   9.891   7.762
36017SOL     OW10057   7.748   9.513   8.700
36017SOL    HW110058   7.696   9.543   8.777
36017SOL    HW210059   7.724   9.418   8.696
36018SOL     OW10060   7.480  10.616   8.722
36018SOL    HW110061   7.513  10.565   8.797
36018SOL    HW210062   7.484  10.708   8.754
36019SOL     OW10063   8.163   9.947   8.492
36019SOL    HW110064   8.244   9.932   8.441
36019SOL    HW210065   8.145  10.043   8.483
36020SOL     OW10066   9.220  10.262   9.284
36020SOL    HW110067   9.169  10.204   9.225
36020SOL    HW210068   9.157  10.280   9.355
36021SOL     OW10069   7.741   9.373   8.061
36021SOL    HW110070   7.720   9.465   8.083
36021SOL    HW210071   7.750   9.333   8.149
36022SOL     OW10072   9.047   9.685   7.810
36022SOL    HW110073   9.086   9.625   7.876
36022SOL    HW210074   9.039   9.769   7.860
36023SOL     OW10075   8.499  10.065   8.414
36023SOL    HW110076   8.482  10.082   8.509
36023SOL    HW210077   8.469   9.972   8.406
36024SOL     OW10078   8.429  10.856   9.158
36024SOL    HW110079   8.441  10.907   9.077
36024SOL    HW210080   8.467  10.769   9.133
36025SOL     OW10081   9.283  10.832   9.051
36025SOL    HW110082   9.315  10.841   8.959
36025SOL    HW210083   9.367  10.834   9.100
36026SOL     OW10084   7.793  10.196   9.259
36026SOL    HW110085   7.876  10.225   9.301
36026SOL    HW210086   7.824  10.129   9.195
36027SOL     OW10087   8.956   9.557   7.580
36027SOL    HW110088   8.879   9.507   7.613
36027SOL    HW210089   8.993   9.599   7.660
36028SOL     OW10090   8.736  10.158   7.469
36028SOL    HW110091   8.781  10.072   7.469
36028SOL    HW210092   8.749  10.186   7.375
36029SOL     OW10093   8.528  10.637   8.296
36029SOL    HW110094   8.531  10.559   8.236
36029SOL    HW210095   8.586  10.701   8.253
36030SOL     OW10096   7.725  10.115   8.443
36030SOL    HW110097   7.813  10.138   8.412
36030SOL    HW210098   7.736  10.022   8.467
36031SOL     OW10099   7.772   9.842   8.453
36031SOL    HW110100   7.745   9.749   8.443
36031SOL    HW210101   7.841   9.850   8.383
36032SOL     OW10102   8.597   9.676   9.138
36032SOL    HW110103   8.555   9.733   9.205
36032SOL    HW210104   8.688   9.713   9.137
36033SOL     OW10105   8.611   9.508   8.930
36033SOL    HW110106   8.606   9.570   9.005
36033SOL    HW210107   8.653   9.561   8.862
36034SOL     OW10108   7.448  10.619   7.595
36034SOL    HW110109   7.353  10.639   7.583
36034SOL    HW210110   7.449  10.556   7.669
36035SOL     OW10111   7.967  10.907   8.382
36035SOL    HW110112   8.046  10.961   8.377
36035SOL    HW210113   7.993  10.830   8.328
36036SOL     OW10114   8.426  10.095   8.679
36036SOL    HW110115   8.479  10.064   8.755
36036SOL    HW210116   8.339  10.062   8.701
36037SOL     OW10117   7.479   9.825   8.557
36037SOL    HW110118   7.561   9.825   8.506
36037SOL    HW210119   7.509   9.855   8.644
36038SOL     OW10120   7.667   9.823   9.167
36038SOL    HW110121   7.723   9.782   9.100
36038SOL    HW210122   7.621   9.892   9.116
36039SOL     OW10123   8.844  10.202   9.099
36039SOL    HW110124   8.870  10.296   9.103
36039SOL    HW210125   8.827  10.190   9.004
36040SOL     OW10126   8.253   9.859   7.843
36040SOL    HW110127   8.275   9.798   7.770
36040SOL    HW210128   8.180   9.910   7.805
36041SOL     OW10129   9.086   9.929   8.633
36041SOL    HW110130   9.059   9.887   8.716
36041SOL    HW210131   9.170   9.886   8.609
36042SOL     OW10132   7.666  10.838   9.172
36042SOL    HW110133   7.658  10.910   9.236
36042SOL    HW210134   7.687  10.762   9.229
36043SOL     OW10135   8.118   9.794   8.713
36043SOL    HW110136   8.078   9.715   8.674
36043SOL    HW210137   8.128   9.853   8.635
36044SOL     OW10138   7.885   9.774   7.645
36044SOL    HW110139   7.954   9.843   7.649
36044SOL    HW210140   7.804   9.825   7.654
36045SOL     OW10141   7.565  10.443   8.912
36045SOL    HW110142   7.587  10.389   8.990
36045SOL    HW210143   7.592  10.385   8.837
36046SOL     OW10144   8.770  10.340   8.690
36046SOL    HW110145   8.795  10.297   8.606
36046SOL    HW210146   8.688  10.386   8.664
36047SOL     OW10147   8.761  10.149   7.739
36047SOL    HW110148   8.669  10.134   7.764
36047SOL    HW210149   8.758  10.155   7.642
36048SOL     OW10150   9.218  11.028   8.596
36048SOL    HW110151   9.268  11.045   8.515
36048SOL    HW210152   9.189  10.934   8.582
36049SOL     OW10153   8.699  11.020   8.539
36049SOL    HW110154   8.787  11.044   8.506
36049SOL    HW210155   8.710  10.925   8.557
36050SOL     OW10156   7.550  10.577   8.465
36050SOL    HW110157   7.515  10.592   8.556
36050SOL    HW210158   7.481  10.520   8.427
36051SOL     OW10159   8.133  10.955   9.174
36051SOL    HW110160   8.069  11.029   9.179
36051SOL    HW210161   8.212  10.998   9.139
36052SOL     OW10162   9.137   9.444   7.962
36052SOL    HW110163   9.207   9.436   7.894
36052SOL    HW210164   9.140   9.357   8.007
36053SOL     OW10165   8.838  10.873   7.933
36053SOL    HW110166   8.906  10.880   7.863
36053SOL    HW210167   8.803  10.964   7.934
36054SOL     OW10168   7.613   0.002   9.287
36054SOL    HW110169   7.559  11.038   9.337
36054SOL    HW210170   7.663   0.041   9.361
36055SOL     OW10171   8.707  10.209   8.109
36055SOL    HW110172   8.787  10.155   8.126
36055SOL    HW210173   8.746  10.288   8.067
36056SOL     OW10174   8.240  10.582   8.861
36056SOL    HW110175   8.210  10.626   8.944
36056SOL    HW210176   8.160  10.588   8.808
36057SOL     OW10177   8.121  10.935   7.590
36057SOL    HW110178   8.147  10.925   7.497
36057SOL    HW210179   8.051  10.866   7.597
36058SOL     OW10180   9.286   9.465   8.459
36058SOL    HW110181   9.310   9.392   8.399
36058SOL    HW210182   9.209   9.504   8.411
36059SOL     OW10183   7.689   9.625   8.153
36059SOL    HW110184   7.605   9.671   8.135
36059SOL    HW210185   7.700   9.639   8.249
36060SOL     OW10186   8.649  10.934   7.478
36060SOL    HW110187   8.643  10.841   7.504
36060SOL    HW210188   8.587  10.940   7.404
36061SOL     OW10189   8.284  10.320   8.809
36061SOL    HW110190   8.327  10.308   8.723
36061SOL    HW210191   8.275  10.417   8.815
36062SOL     OW10192   8.360  10.226   7.724
36062SOL    HW110193   8.433  10.258   7.667
36062SOL    HW210194   8.398  10.145   7.762
36063SOL     OW10195   8.948  10.960   7.493
36063SOL    HW110196   8.856  10.935   7.477
36063SOL    HW210197   8.984  10.962   7.402
36064SOL     OW10198   7.799  10.589   8.940
36064SOL    HW110199   7.779  10.671   8.892
36064SOL    HW210200   7.720  10.535   8.926
36065SOL     OW10201   9.053  10.589   8.724
36065SOL    HW110202   9.110  10.570   8.799
36065SOL    HW210203   8.998  10.662   8.759
36066SOL     OW10204   8.500  10.411   8.161
36066SOL    HW110205   8.428  10.359   8.200
36066SOL    HW210206   8.555  10.343   8.120
36067SOL     OW10207   8.480   9.539   8.437
36067SOL    HW110208   8.472   9.493   8.351
36067SOL    HW210209   8.474   9.464   8.499
36068SOL     OW10210   8.060  10.812   7.967
36068SOL    HW110211   8.088  10.767   7.886
36068SOL    HW210212   7.990  10.870   7.936
36069SOL     OW10213   9.156   9.697   8.822
36069SOL    HW110214   9.222   9.768   8.838
36069SOL    HW210215   9.170   9.680   8.729
36070SOL     OW10216   7.585  10.317   9.144
36070SOL    HW110217   7.508  10.310   9.204
36070SOL    HW210218   7.658  10.278   9.197
36071SOL     OW10219   8.124   9.492   8.933
36071SOL    HW110220   8.211   9.460   8.901
36071SOL    HW210221   8.149   9.531   9.019
36072SOL     OW10222   8.902  10.149   8.831
36072SOL    HW110223   8.852  10.214   8.778
36072SOL    HW210224   8.991  10.185   8.826
36073SOL     OW10225   7.499   9.468   7.751
36073SOL    HW110226   7.526   9.557   7.771
36073SOL    HW210227   7.581   9.430   7.713
36074SOL     OW10228   8.646  10.637   7.561
36074SOL    HW110229   8.560  10.594   7.556
36074SOL    HW210230   8.663  10.639   7.657
36075SOL     OW10231   8.071  10.129   8.875
36075SOL    HW110232   8.125  10.209   8.866
36075SOL    HW210233   8.141  10.062   8.884
36076SOL     OW10234   8.950  11.059   8.420
36076SOL    HW110235   8.974   0.006   8.340
36076SOL    HW210236   9.035  11.050   8.466
36077SOL     OW10237   8.183   9.853   9.141
36077SOL    HW110238   8.212   9.914   9.211
36077SOL    HW210239   8.195   9.765   9.178
36078SOL     OW10240   8.917  10.465   9.085
36078SOL    HW110241   8.899  10.487   9.179
36078SOL    HW210242   9.014  10.481   9.080
36079SOL     OW10243   9.153  10.195   8.673
36079SOL    HW110244   9.123  10.107   8.642
36079SOL    HW210245   9.116  10.256   8.607
36080SOL     OW10246   8.655   9.635   7.921
36080SOL    HW110247   8.722   9.566   7.911
36080SOL    HW210248   8.694   9.690   7.992
36081SOL     OW10249   8.059  10.024   8.091
36081SOL    HW110250   8.097  10.114   8.089
36081SOL    HW210251   7.983  10.033   8.031
36082SOL     OW10252   9.212   9.676   9.080
36082SOL    HW110253   9.175   9.689   8.991
36082SOL    HW210254   9.137   9.635   9.127
36083SOL     OW10255   9.179  10.232   8.936
36083SOL    HW110256   9.200  10.325   8.948
36083SOL    HW210257   9.193  10.220   8.840
36084SOL     OW10258   8.295  10.672   7.485
36084SOL    HW110259   8.265  10.714   7.567
36084SOL    HW210260   8.329  10.746   7.432
36085SOL     OW10261   8.327  10.255   8.289
36085SOL    HW110262   8.379  10.186   8.333
36085SOL    HW210263   8.300  10.313   8.363
36086SOL     OW10264   8.541  10.317   7.556
36086SOL    HW110265   8.514  10.364   7.475
36086SOL    HW210266   8.613  10.261   7.520
36087SOL     OW10267   9.293  10.908   8.310
36087SOL    HW110268   9.222  10.880   8.252
36087SOL    HW210269   9.314  10.829   8.360
36088SOL     OW10270   7.708  10.619   9.319
36088SOL    HW110271   7.630  10.573   9.285
36088SOL    HW210272   7.693  10.614   9.415
36089SOL     OW10273   7.527  10.549   8.106
36089SOL    HW110274   7.571  10.513   8.184
36089SOL    HW210275   7.578  10.510   8.033
36090SOL     OW10276   8.120  10.709   9.061
36090SOL    HW110277   8.054  10.649   9.102
36090SOL    HW210278   8.108  10.791   9.112
36091SOL     OW10279   7.880   9.742   7.979
36091SOL    HW110280   7.933   9.675   7.936
36091SOL    HW210281   7.838   9.695   8.053
36092SOL     OW10282   9.138  10.785   8.546
36092SOL    HW110283   9.060  10.773   8.488
36092SOL    HW210284   9.129  10.710   8.607
36093SOL     OW10285   7.777   9.843   8.742
36093SOL    HW110286   7.849   9.806   8.794
36093SOL    HW210287   7.798   9.815   8.651
36094SOL     OW10288   8.251  10.901   8.150
36094SOL    HW110289   8.260  10.973   8.084
36094SOL    HW210290   8.169  10.857   8.122
36095SOL     OW10291   8.891   9.541   8.557
36095SOL    HW110292   8.894   9.451   8.591
36095SOL    HW210293   8.838   9.589   8.625
36096SOL     OW10294   8.462   9.314   8.599
36096SOL    HW110295   8.409   9.238   8.572
36096SOL    HW210296   8.553   9.276   8.597
36097SOL     OW10297   8.234  10.654   7.771
36097SOL    HW110298   8.192  10.567   7.753
36097SOL    HW210299   8.308  10.626   7.827
36098SOL     OW10300   8.048  10.847   8.719
36098SOL    HW110301   8.054  10.935   8.759
36098SOL    HW210302   8.139  10.835   8.688
36099SOL     OW10303   8.765   9.332   7.631
36099SOL    HW110304   8.779   9.268   7.561
36099SOL    HW210305   8.673   9.307   7.659
36100SOL     OW10306   8.757   9.781   8.131
36100SOL    HW110307   8.694   9.855   8.128
36100SOL    HW210308   8.735   9.738   8.216
36101SOL     OW10309   9.054   9.525   8.327
36101SOL    HW110310   8.976   9.532   8.384
36101SOL    HW210311   9.043   9.600   8.265
36102SOL     OW10312   7.478  10.383   7.782
36102SOL    HW110313   7.569  10.391   7.749
36102SOL    HW210314   7.472  10.287   7.798
36103SOL     OW10315   7.684   9.955   9.438
36103SOL    HW110316   7.597   9.931   9.471
36103SOL    HW210317   7.684   9.924   9.345
36104SOL     OW10318   7.679   9.581  10.276
36104SOL    HW110319   7.694   9.567  10.371
36104SOL    HW210320   7.589   9.542  10.265
36105SOL     OW10321   7.446   9.713   9.929
36105SOL    HW110322   7.369   9.737   9.985
36105SOL    HW210323   7.416   9.630   9.890
36106SOL     OW10324   8.000  10.578  10.468
36106SOL    HW110325   7.909  10.576  10.436
36106SOL    HW210326   8.003  10.661  10.515
36107SOL     OW10327   9.000  10.846  10.021
36107SOL    HW110328   8.939  10.840  10.096
36107SOL    HW210329   8.940  10.847   9.943
36108SOL     OW10330   8.559   9.998   9.997
36108SOL    HW110331   8.608  10.081   9.982
36108SOL    HW210332   8.514  10.017  10.081
36109SOL     OW10333   9.228   9.911   9.547
36109SOL    HW110334   9.203   9.894   9.454
36109SOL    HW210335   9.180   9.841   9.594
36110SOL     OW10336   8.197  10.450  10.341
36110SOL    HW110337   8.122  10.491  10.388
36110SOL    HW210338   8.237  10.529  10.299
36111SOL     OW10339   8.292  10.094  11.100
36111SOL    HW110340   8.307  10.155   0.072
36111SOL    HW210341   8.342  10.136  11.027
36112SOL     OW10342   8.152  10.335   9.965
36112SOL    HW110343   8.209  10.318  10.042
36112SOL    HW210344   8.075  10.378  10.006
36113SOL     OW10345   7.766  10.753  10.392
36113SOL    HW110346   7.694  10.721  10.336
36113SOL    HW210347   7.822  10.804  10.331
36114SOL     OW10348   8.917  10.798  10.661
36114SOL    HW110349   8.943  10.880  10.707
36114SOL    HW210350   8.859  10.756  10.727
36115SOL     OW10351   7.919   9.725  10.813
36115SOL    HW110352   7.985   9.655  10.804
36115SOL    HW210353   7.836   9.676  10.814
36116SOL     OW10354   9.072   9.758  10.051
36116SOL    HW110355   9.006   9.797   9.991
36116SOL    HW210356   9.073   9.823  10.123
36117SOL     OW10357   7.692  10.760   9.833
36117SOL    HW110358   7.703  10.847   9.872
36117SOL    HW210359   7.638  10.712   9.897
36118SOL     OW10360   7.725  10.412  10.203
36118SOL    HW110361   7.717  10.327  10.249
36118SOL    HW210362   7.666  10.471  10.253
36119SOL     OW10363   8.017  10.300   9.417
36119SOL    HW110364   8.071  10.343   9.348
36119SOL    HW210365   8.053  10.342   9.497
36120SOL     OW10366   9.037   9.425  10.786
36120SOL    HW110367   9.042   9.514  10.749
36120SOL    HW210368   9.042   9.440  10.881
36121SOL     OW10369   7.563   9.965   9.874
36121SOL    HW110370   7.534   9.872   9.885
36121SOL    HW210371   7.554  10.002   9.963
36122SOL     OW10372   7.503  10.913   9.439
36122SOL    HW110373   7.492  10.817   9.452
36122SOL    HW210374   7.438  10.949   9.500
36123SOL     OW10375   9.126  10.232   9.951
36123SOL    HW110376   9.186  10.179   9.896
36123SOL    HW210377   9.092  10.295   9.886
36124SOL     OW10378   9.097  10.432   9.760
36124SOL    HW110379   9.188  10.426   9.728
36124SOL    HW210380   9.106  10.499   9.831
36125SOL     OW10381   7.572  10.051  10.904
36125SOL    HW110382   7.661  10.068  10.935
36125SOL    HW210383   7.533  10.140  10.907
36126SOL     OW10384   8.043  10.706  10.074
36126SOL    HW110385   8.004  10.616  10.076
36126SOL    HW210386   8.041  10.723   9.978
36127SOL     OW10387   8.760  10.584  10.759
36127SOL    HW110388   8.775  10.516  10.692
36127SOL    HW210389   8.799  10.543  10.838
36128SOL     OW10390   8.287   9.305   9.815
36128SOL    HW110391   8.314   9.398   9.810
36128SOL    HW210392   8.191   9.313   9.830
36129SOL     OW10393   7.647  10.300  10.594
36129SOL    HW110394   7.730  10.251  10.580
36129SOL    HW210395   7.581  10.244  10.550
36130SOL     OW10396   8.989  10.297   9.518
36130SOL    HW110397   8.909  10.249   9.548
36130SOL    HW210398   9.030  10.324   9.601
36131SOL     OW10399   8.693   0.014  10.895
36131SOL    HW110400   8.643   0.076  10.839
36131SOL    HW210401   8.689  11.033  10.843
36132SOL     OW10402   7.781   9.548   0.016
36132SOL    HW110403   7.843   9.620   0.019
36132SOL    HW210404   7.696   9.597   0.017
36133SOL     OW10405   8.940  10.722  10.284
36133SOL    HW110406   8.864  10.742  10.342
36133SOL    HW210407   8.909  10.644  10.235
36134SOL     OW10408   8.038  10.019   9.576
36134SOL    HW110409   8.036  10.105   9.531
36134SOL    HW210410   7.967  10.029   9.642
36135SOL     OW10411   8.725   9.669  10.249
36135SOL    HW110412   8.638   9.627  10.256
36135SOL    HW210413   8.778   9.618  10.312
36136SOL     OW10414   9.012  10.949   9.613
36136SOL    HW110415   9.069  11.021   9.641
36136SOL    HW210416   9.010  10.960   9.516
36137SOL     OW10417   8.258   9.924  10.783
36137SOL    HW110418   8.230   9.895  10.872
36137SOL    HW210419   8.213   9.860  10.724
36138SOL     OW10420   8.428  10.204  10.884
36138SOL    HW110421   8.469  10.126  10.840
36138SOL    HW210422   8.376  10.243  10.812
36139SOL     OW10423   8.434   9.696  10.560
36139SOL    HW110424   8.346   9.718  10.595
36139SOL    HW210425   8.412   9.646  10.480
36140SOL     OW10426   8.492   9.992   9.718
36140SOL    HW110427   8.510  10.007   9.812
36140SOL    HW210428   8.404   9.948   9.722
36141SOL     OW10429   7.545  10.121  10.110
36141SOL    HW110430   7.620  10.123  10.173
36141SOL    HW210431   7.507  10.209  10.122
36142SOL     OW10432   7.559   0.030  10.897
36142SOL    HW110433   7.532  11.092  10.981
36142SOL    HW210434   7.475   0.040  10.851
36143SOL     OW10435   8.328   9.692   9.515
36143SOL    HW110436   8.366   9.748   9.444
36143SOL    HW210437   8.353   9.605   9.485
36144SOL     OW10438   8.806  10.458   9.871
36144SOL    HW110439   8.885  10.456   9.814
36144SOL    HW210440   8.750  10.522   9.823
36145SOL     OW10441   8.004   9.487  10.200
36145SOL    HW110442   8.010   9.510  10.295
36145SOL    HW210443   7.981   9.572  10.160
36146SOL     OW10444   8.435  10.766   9.774
36146SOL    HW110445   8.352  10.789   9.730
36146SOL    HW210446   8.418  10.791   9.866
36147SOL     OW10447   7.790  11.099  10.194
36147SOL    HW110448   7.846  11.024  10.220
36147SOL    HW210449   7.855   0.070  10.188
36148SOL     OW10450   9.264  10.415  10.191
36148SOL    HW110451   9.244  10.397  10.098
36148SOL    HW210452   9.187  10.374  10.234
36149SOL     OW10453   8.663  10.869  10.772
36149SOL    HW110454   8.677  10.804  10.842
36149SOL    HW210455   8.600  10.823  10.715
36150SOL     OW10456   7.755  10.249   9.556
36150SOL    HW110457   7.840  10.262   9.513
36150SOL    HW210458   7.718  10.176   9.504
36151SOL     OW10459   8.925  10.065  10.034
36151SOL    HW110460   8.924  10.032  10.126
36151SOL    HW210461   9.006  10.120  10.031
36152SOL     OW10462   7.911  10.581  11.041
36152SOL    HW110463   7.875  10.599  10.952
36152SOL    HW210464   7.866  10.498  11.064
36153SOL     OW10465   8.529  11.073   9.566
36153SOL    HW110466   8.466  11.022   9.617
36153SOL    HW210467   8.543  11.022   9.485
36154SOL     OW10468   7.630   9.604  10.784
36154SOL    HW110469   7.556   9.664  10.802
36154SOL    HW210470   7.609   9.528  10.840
36155SOL     OW10471   9.067  10.693   9.395
36155SOL    HW110472   9.014  10.773   9.387
36155SOL    HW210473   9.001  10.622   9.380
36156SOL     OW10474   8.844   9.403   9.742
36156SOL    HW110475   8.851   9.362   9.654
36156SOL    HW210476   8.935   9.431   9.759
36157SOL     OW10477   7.836  10.013   9.774
36157SOL    HW110478   7.863   9.919   9.787
36157SOL    HW210479   7.741  10.007   9.797
36158SOL     OW10480   8.077   9.446   9.407
36158SOL    HW110481   8.147   9.390   9.440
36158SOL    HW210482   8.032   9.388   9.342
36159SOL     OW10483   8.220   9.559  11.019
36159SOL    HW110484   8.296   9.536  11.073
36159SOL    HW210485   8.160   9.599  11.084
36160SOL     OW10486   8.337  10.846  10.519
36160SOL    HW110487   8.321  10.801  10.435
36160SOL    HW210488   8.400  10.789  10.565
36161SOL     OW10489   8.789   9.900  10.727
36161SOL    HW110490   8.859   9.869  10.786
36161SOL    HW210491   8.822   9.990  10.707
36162SOL     OW10492   8.285  10.705  10.273
36162SOL    HW110493   8.370  10.699  10.226
36162SOL    HW210494   8.222  10.711  10.200
36163SOL     OW10495   8.393   9.829  10.216
36163SOL    HW110496   8.369   9.819  10.120
36163SOL    HW210497   8.413   9.737  10.239
36164SOL     OW10498   8.012   9.360   9.814
36164SOL    HW110499   7.934   9.368   9.872
36164SOL    HW210500   8.000   9.438   9.757
36165SOL     OW10501   8.889  10.495   9.353
36165SOL    HW110502   8.921  10.422   9.410
36165SOL    HW210503   8.796  10.506   9.381
36166SOL     OW10504   7.727   9.348   9.506
36166SOL    HW110505   7.787   9.421   9.484
36166SOL    HW210506   7.789   9.282   9.543
36167SOL     OW10507   8.377   9.562   9.800
36167SOL    HW110508   8.354   9.613   9.721
36167SOL    HW210509   8.474   9.575   9.802
36168SOL     OW10510   8.548  10.001  10.753
36168SOL    HW110511   8.490   9.924  10.763
36168SOL    HW210512   8.637   9.960  10.748
36169SOL     OW10513   8.687  10.879  10.110
36169SOL    HW110514   8.643  10.950  10.062
36169SOL    HW210515   8.728  10.926  10.183
36170SOL     OW10516   7.924  10.471  10.038
36170SOL    HW110517   7.852  10.451  10.101
36170SOL    HW210518   7.883  10.442   9.953
36171SOL     OW10519   8.503   9.844   9.329
36171SOL    HW110520   8.461   9.930   9.313
36171SOL    HW210521   8.572   9.864   9.395
36172SOL     OW10522   7.525   9.871  10.711
36172SOL    HW110523   7.619   9.856  10.690
36172SOL    HW210524   7.530   9.948  10.771
36173SOL     OW10525   8.014   9.534  10.469
36173SOL    HW110526   8.053   9.464  10.522
36173SOL    HW210527   7.921   9.531  10.499
36174SOL     OW10528   8.323   9.775   9.970
36174SOL    HW110529   8.266   9.823   9.908
36174SOL    HW210530   8.341   9.692   9.922
36175SOL     OW10531   8.506   9.384  10.079
36175SOL    HW110532   8.460   9.375   9.995
36175SOL    HW210533   8.472   9.308  10.129
36176SOL     OW10534   8.877  10.480  10.191
36176SOL    HW110535   8.798  10.427  10.205
36176SOL    HW210536   8.886  10.478  10.095
36177SOL     OW10537   8.919   9.918  10.289
36177SOL    HW110538   8.871   9.833  10.290
36177SOL    HW210539   8.985   9.907  10.360
36178SOL     OW10540   9.269  10.130   9.718
36178SOL    HW110541   9.332  10.075   9.768
36178SOL    HW210542   9.265  10.081   9.634
36179SOL     OW10543   7.930  10.747   9.485
36179SOL    HW110544   7.861  10.707   9.542
36179SOL    HW210545   7.899  10.716   9.399
36180SOL     OW10546   9.123  10.597   9.980
36180SOL    HW110547   9.218  10.616   9.987
36180SOL    HW210548   9.082  10.683   9.999
36181SOL     OW10549   8.861   9.910   9.370
36181SOL    HW110550   8.811   9.878   9.449
36181SOL    HW210551   8.950   9.879   9.389
36182SOL     OW10552   7.973   9.553   9.628
36182SOL    HW110553   8.014   9.525   9.544
36182SOL    HW210554   7.934   9.638   9.599
36183SOL     OW10555   9.211  10.531  10.887
36183SOL    HW110556   9.306  10.515  10.885
36183SOL    HW210557   9.206  10.621  10.923
36184SOL     OW10558   8.483  10.676  10.683
36184SOL    HW110559   8.398  10.630  10.701
36184SOL    HW210560   8.550  10.609  10.705
36185SOL     OW10561   8.582  10.535  10.427
36185SOL    HW110562   8.500  10.558  10.471
36185SOL    HW210563   8.564  10.565  10.335
36186SOL     OW10564   9.072  10.410  10.382
36186SOL    HW110565   9.046  10.459  10.462
36186SOL    HW210566   9.003  10.437  10.318
36187SOL     OW10567   8.351   9.416  10.692
36187SOL    HW110568   8.385   9.388  10.605
36187SOL    HW210569   8.431   9.455  10.732
36188SOL     OW10570   8.146  10.388   9.648
36188SOL    HW110571   8.137  10.360   9.740
36188SOL    HW210572   8.218  10.330   9.617
36189SOL     OW10573   7.874  10.127  10.587
36189SOL    HW110574   7.947  10.128  10.652
36189SOL    HW210575   7.835  10.039  10.602
36190SOL     OW10576   8.709   9.679  10.585
36190SOL    HW110577   8.730   9.761  10.633
36190SOL    HW210578   8.620   9.698  10.549
36191SOL     OW10579   7.501  10.879  10.669
36191SOL    HW110580   7.465  10.935  10.599
36191SOL    HW210581   7.598  10.882  10.655
36192SOL     OW10582   7.811  10.386   9.805
36192SOL    HW110583   7.829  10.454   9.740
36192SOL    HW210584   7.795  10.308   9.750
36193SOL     OW10585   7.977   9.853  10.157
36193SOL    HW110586   8.006   9.914  10.086
36193SOL    HW210587   8.050   9.861  10.221
36194SOL     OW10588   8.688  10.664   9.697
36194SOL    HW110589   8.746  10.730   9.740
36194SOL    HW210590   8.599  10.696   9.723
36195SOL     OW10591   8.749  10.766  10.460
36195SOL    HW110592   8.804  10.782  10.539
36195SOL    HW210593   8.694  10.691  10.485
36196SOL     OW10594   9.022   9.922   9.781
36196SOL    HW110595   8.973   9.982   9.839
36196SOL    HW210596   9.069   9.984   9.723
36197SOL     OW10597   7.775  10.839  10.643
36197SOL    HW110598   7.771  10.802  10.552
36197SOL    HW210599   7.869  10.860  10.653
36198SOL     OW10600   7.898  10.023  10.920
36198SOL    HW110601   7.964  10.065  10.861
36198SOL    HW210602   7.907   9.930  10.896
36199SOL     OW10603   9.057  10.065  11.000
36199SOL    HW110604   9.007  10.134  11.045
36199SOL    HW210605   9.115  10.117  10.942
36200SOL     OW10606   8.001  10.202  10.353
36200SOL    HW110607   8.056  10.282  10.355
36200SOL    HW210608   7.974  10.189  10.446
36201SOL     OW10609   8.794  10.170  10.334
36201SOL    HW110610   8.716  10.144  10.284
36201SOL    HW210611   8.845  10.088  10.333
36202SOL     OW10612   8.675   9.835   9.573
36202SOL    HW110613   8.678   9.760   9.635
36202SOL    HW210614   8.608   9.891   9.615
36203SOL     OW10615   7.741   9.521  10.543
36203SOL    HW110616   7.695   9.553  10.623
36203SOL    HW210617   7.719   9.426  10.544
36204SOL     OW10618   7.487  10.620  10.589
36204SOL    HW110619   7.527  10.570  10.663
36204SOL    HW210620   7.479  10.710  10.627
36205SOL     OW10621   8.162   9.963  10.347
36205SOL    HW110622   8.240   9.960  10.290
36205SOL    HW210623   8.115  10.043  10.319
36206SOL     OW10624   7.770   9.389   9.920
36206SOL    HW110625   7.732   9.477   9.940
36206SOL    HW210626   7.764   9.343  10.006
36207SOL     OW10627   9.053   9.684   9.660
36207SOL    HW110628   9.082   9.613   9.721
36207SOL    HW210629   9.041   9.761   9.719
36208SOL     OW10630   8.485  10.070  10.264
36208SOL    HW110631   8.474  10.085  10.360
36208SOL    HW210632   8.468   9.973  10.257
36209SOL     OW10633   8.462  10.838  10.973
36209SOL    HW110634   8.447  10.912  10.912
36209SOL    HW210635   8.421  10.763  10.927
36210SOL     OW10636   9.281  10.826  10.911
36210SOL    HW110637   9.328  10.854  10.831
36210SOL    HW210638   9.340  10.858  10.982
36211SOL     OW10639   7.816  10.219  11.076
36211SOL    HW110640   7.895  10.241   0.028
36211SOL    HW210641   7.848  10.143  11.023
36212SOL     OW10642   8.955   9.564   9.435
36212SOL    HW110643   8.878   9.513   9.466
36212SOL    HW210644   8.990   9.603   9.517
36213SOL     OW10645   8.740  10.150   9.335
36213SOL    HW110646   8.782  10.063   9.351
36213SOL    HW210647   8.772  10.168   9.244
36214SOL     OW10648   8.529  10.636  10.167
36214SOL    HW110649   8.518  10.565  10.100
36214SOL    HW210650   8.589  10.699  10.123
36215SOL     OW10651   7.737  10.123  10.301
36215SOL    HW110652   7.832  10.145  10.311
36215SOL    HW210653   7.735  10.030  10.329
36216SOL     OW10654   7.766   9.831  10.317
36216SOL    HW110655   7.738   9.742  10.289
36216SOL    HW210656   7.836   9.849  10.250
36217SOL     OW10657   8.599   9.514  10.774
36217SOL    HW110658   8.636   9.572  10.843
36217SOL    HW210659   8.634   9.555  10.693
36218SOL     OW10660   7.453  10.633   9.487
36218SOL    HW110661   7.360  10.654   9.461
36218SOL    HW210662   7.444  10.545   9.526
36219SOL     OW10663   7.963  10.896  10.246
36219SOL    HW110664   8.048  10.941  10.249
36219SOL    HW210665   7.984  10.823  10.184
36220SOL     OW10666   8.438  10.115  10.534
36220SOL    HW110667   8.497  10.079  10.604
36220SOL    HW210668   8.355  10.073  10.557
36221SOL     OW10669   7.486   9.832  10.429
36221SOL    HW110670   7.570   9.836  10.381
36221SOL    HW210671   7.514   9.830  10.521
36222SOL     OW10672   8.249   9.876   9.701
36222SOL    HW110673   8.265   9.813   9.628
36222SOL    HW210674   8.176   9.930   9.665
36223SOL     OW10675   9.106   9.929  10.506
36223SOL    HW110676   9.094   9.856  10.568
36223SOL    HW210677   9.191   9.904  10.463
36224SOL     OW10678   7.685  10.834  11.041
36224SOL    HW110679   7.640  10.898  11.100
36224SOL    HW210680   7.694  10.759  11.101
36225SOL     OW10681   8.153   9.784  10.575
36225SOL    HW110682   8.103   9.708  10.540
36225SOL    HW210683   8.147   9.849  10.501
36226SOL     OW10684   7.884   9.783   9.508
36226SOL    HW110685   7.955   9.848   9.518
36226SOL    HW210686   7.808   9.841   9.491
36227SOL     OW10687   7.597  10.472  10.781
36227SOL    HW110688   7.602  10.417  10.862
36227SOL    HW210689   7.614  10.404  10.711
36228SOL     OW10690   8.762  10.358  10.549
36228SOL    HW110691   8.781  10.295  10.477
36228SOL    HW210692   8.692  10.412  10.508
36229SOL     OW10693   8.753  10.183   9.603
36229SOL    HW110694   8.674  10.141   9.640
36229SOL    HW210695   8.737  10.179   9.507
36230SOL     OW10696   9.186  11.028  10.430
36230SOL    HW110697   9.248  11.066  10.367
36230SOL    HW210698   9.198  10.932  10.418
36231SOL     OW10699   8.693  11.029  10.449
36231SOL    HW110700   8.777  11.054  10.410
36231SOL    HW210701   8.700  10.931  10.451
36232SOL     OW10702   7.556  10.574  10.331
36232SOL    HW110703   7.533  10.592  10.424
36232SOL    HW210704   7.478  10.525  10.300
36233SOL     OW10705   9.130   9.459   9.799
36233SOL    HW110706   9.202   9.436   9.738
36233SOL    HW210707   9.124   9.378   9.854
36234SOL     OW10708   8.837  10.876   9.799
36234SOL    HW110709   8.903  10.886   9.728
36234SOL    HW210710   8.795  10.963   9.799
36235SOL     OW10711   8.708  10.216   9.972
36235SOL    HW110712   8.787  10.162   9.993
36235SOL    HW210713   8.747  10.296   9.933
36236SOL     OW10714   8.239  10.580  10.729
36236SOL    HW110715   8.207  10.631  10.807
36236SOL    HW210716   8.161  10.588  10.671
36237SOL     OW10717   8.111  10.935   9.445
36237SOL    HW110718   8.128  10.919   9.351
36237SOL    HW210719   8.044  10.866   9.466
36238SOL     OW10720   9.293   9.477  10.271
36238SOL    HW110721   9.317   9.386  10.245
36238SOL    HW210722   9.202   9.489  10.236
36239SOL     OW10723   7.697   9.636  10.002
36239SOL    HW110724   7.610   9.678   9.986
36239SOL    HW210725   7.702   9.634  10.099
36240SOL     OW10726   8.646  10.937   9.344
36240SOL    HW110727   8.648  10.844   9.371
36240SOL    HW210728   8.581  10.937   9.272
36241SOL     OW10729   8.259  10.317  10.694
36241SOL    HW110730   8.286  10.315  10.602
36241SOL    HW210731   8.263  10.412  10.716
36242SOL     OW10732   8.351  10.232   9.571
36242SOL    HW110733   8.431  10.264   9.525
36242SOL    HW210734   8.385  10.156   9.620
36243SOL     OW10735   8.978  10.963   9.345
36243SOL    HW110736   8.884  10.942   9.337
36243SOL    HW210737   9.007  10.957   9.251
36244SOL     OW10738   7.824  10.606  10.791
36244SOL    HW110739   7.798  10.685  10.741
36244SOL    HW210740   7.742  10.553  10.786
36245SOL     OW10741   9.067  10.588  10.594
36245SOL    HW110742   9.100  10.568  10.683
36245SOL    HW210743   9.006  10.662  10.612
36246SOL     OW10744   8.491  10.425  10.010
36246SOL    HW110745   8.425  10.372  10.057
36246SOL    HW210746   8.547  10.357   9.971
36247SOL     OW10747   8.472   9.548  10.296
36247SOL    HW110748   8.471   9.505  10.209
36247SOL    HW210749   8.470   9.471  10.355
36248SOL     OW10750   8.056  10.805   9.818
36248SOL    HW110751   8.079  10.766   9.733
36248SOL    HW210752   8.009  10.886   9.791
36249SOL     OW10753   9.147   9.696  10.701
36249SOL    HW110754   9.214   9.766  10.706
36249SOL    HW210755   9.189   9.635  10.636
36250SOL     OW10756   7.706  10.658   9.592
36250SOL    HW110757   7.610  10.662   9.575
36250SOL    HW210758   7.710  10.694   9.683
36251SOL     OW10759   7.592  10.342  11.008
36251SOL    HW110760   7.521  10.316  11.068
36251SOL    HW210761   7.671  10.295  11.043
36252SOL     OW10762   8.111   9.508  10.778
36252SOL    HW110763   8.197   9.486  10.737
36252SOL    HW210764   8.141   9.527  10.870
36253SOL     OW10765   7.549   9.650   9.338
36253SOL    HW110766   7.455   9.645   9.320
36253SOL    HW210767   7.577   9.725   9.282
36254SOL     OW10768   8.874  10.157  10.713
36254SOL    HW110769   8.819  10.225  10.672
36254SOL    HW210770   8.963  10.188  10.692
36255SOL     OW10771   7.499   9.467   9.610
36255SOL    HW110772   7.497   9.554   9.568
36255SOL    HW210773   7.582   9.430   9.577
36256SOL     OW10774   8.640  10.636   9.428
36256SOL    HW110775   8.558  10.586   9.437
36256SOL    HW210776   8.670  10.639   9.520
36257SOL     OW10777   8.082  10.126  10.753
36257SOL    HW110778   8.140  10.203  10.737
36257SOL    HW210779   8.148  10.055  10.768
36258SOL     OW10780   8.955  11.061  10.285
36258SOL    HW110781   8.993   0.008  10.211
36258SOL    HW210782   9.029  11.058  10.348
36259SOL     OW10783   8.173   9.862  11.034
36259SOL    HW110784   8.207   9.944  11.076
36259SOL    HW210785   8.244   9.798  11.046
36260SOL     OW10786   7.853  11.022  10.907
36260SOL    HW110787   7.778  11.079  10.884
36260SOL    HW210788   7.810  10.948  10.952
36261SOL     OW10789   9.120  10.201  10.570
36261SOL    HW110790   9.117  10.106  10.550
36261SOL    HW210791   9.087  10.242  10.489
36262SOL     OW10792   8.645   9.637   9.774
36262SOL    HW110793   8.712   9.567   9.770
36262SOL    HW210794   8.673   9.688   9.854
36263SOL     OW10795   8.049  10.044   9.975
36263SOL    HW110796   8.088  10.131   9.961
36263SOL    HW210797   7.970  10.047   9.918
36264SOL     OW10798   9.216   9.618  10.951
36264SOL    HW110799   9.182   9.645  10.863
36264SOL    HW210800   9.139   9.627  11.008
36265SOL     OW10801   9.192  10.253  10.825
36265SOL    HW110802   9.190  10.349  10.840
36265SOL    HW210803   9.175  10.242  10.730
36266SOL     OW10804   8.273  10.689   9.343
36266SOL    HW110805   8.262  10.723   9.433
36266SOL    HW210806   8.322  10.759   9.298
36267SOL     OW10807   8.330  10.268  10.169
36267SOL    HW110808   8.378  10.192  10.207
36267SOL    HW210809   8.301  10.317  10.248
36268SOL     OW10810   8.549  10.324   9.413
36268SOL    HW110811   8.514  10.367   9.333
36268SOL    HW210812   8.608  10.256   9.375
36269SOL     OW10813   9.312  10.821  10.170
36269SOL    HW110814   9.253  10.853  10.102
36269SOL    HW210815   9.253  10.799  10.244
36270SOL     OW10816   7.549  10.565   9.978
36270SOL    HW110817   7.565  10.521  10.063
36270SOL    HW210818   7.580  10.499   9.915
36271SOL     OW10819   8.118  10.714  10.918
36271SOL    HW110820   8.067  10.654  10.975
36271SOL    HW210821   8.057  10.789  10.908
36272SOL     OW10822   9.250   9.521  10.532
36272SOL    HW110823   9.282   9.432  10.554
36272SOL    HW210824   9.266   9.523  10.435
36273SOL     OW10825   7.877   9.754   9.828
36273SOL    HW110826   7.929   9.685   9.785
36273SOL    HW210827   7.831   9.707   9.899
36274SOL     OW10828   9.174  10.754  10.395
36274SOL    HW110829   9.084  10.747  10.355
36274SOL    HW210830   9.155  10.741  10.489
36275SOL     OW10831   7.790   9.853  10.599
36275SOL    HW110832   7.856   9.803  10.650
36275SOL    HW210833   7.800   9.818  10.509
36276SOL     OW10834   8.284  10.882   9.990
36276SOL    HW110835   8.280  10.962   9.933
36276SOL    HW210836   8.192  10.852   9.991
36277SOL     OW10837   8.878   9.545  10.429
36277SOL    HW110838   8.916   9.472  10.479
36277SOL    HW210839   8.821   9.590  10.495
36278SOL     OW10840   8.463   9.320  10.458
36278SOL    HW110841   8.409   9.246  10.427
36278SOL    HW210842   8.552   9.278  10.464
36279SOL     OW10843   8.238  10.651   9.621
36279SOL    HW110844   8.183  10.571   9.611
36279SOL    HW210845   8.309  10.618   9.678
36280SOL     OW10846   8.064  10.862  10.608
36280SOL    HW110847   8.071  10.950  10.645
36280SOL    HW210848   8.153  10.850  10.571
36281SOL     OW10849   8.763   9.352   9.463
36281SOL    HW110850   8.775   9.271   9.412
36281SOL    HW210851   8.674   9.337   9.502
36282SOL     OW10852   8.721   9.779   9.991
36282SOL    HW110853   8.666   9.859   9.992
36282SOL    HW210854   8.719   9.750  10.084
36283SOL     OW10855   9.045   9.522  10.188
36283SOL    HW110856   8.975   9.537  10.253
36283SOL    HW210857   9.046   9.604  10.136
36284SOL     OW10858   7.496  10.382   9.631
36284SOL    HW110859   7.587  10.365   9.602
36284SOL    HW210860   7.467  10.292   9.653
36285SOL     OW10861   9.551   0.626   0.146
36285SOL    HW110862   9.467   0.614   0.193
36285SOL    HW210863   9.533   0.577   0.064
36286SOL     OW10864   9.518   0.302   0.992
36286SOL    HW110865   9.552   0.288   1.082
36286SOL    HW210866   9.454   0.229   0.983
36287SOL     OW10867   9.338   0.390   0.628
36287SOL    HW110868   9.254   0.387   0.675
36287SOL    HW210869   9.324   0.333   0.551
36288SOL     OW10870   9.884   1.295   1.195
36288SOL    HW110871   9.800   1.304   1.147
36288SOL    HW210872   9.896   1.386   1.229
36289SOL     OW10873  10.884   1.528   0.711
36289SOL    HW110874  10.846   1.494   0.794
36289SOL    HW210875  10.818   1.504   0.644
36290SOL     OW10876  10.453   0.697   0.708
36290SOL    HW110877  10.480   0.790   0.699
36290SOL    HW210878  10.419   0.697   0.799
36291SOL     OW10879  11.084   0.633   0.223
36291SOL    HW110880  11.045   0.645   0.136
36291SOL    HW210881  11.037   0.555   0.257
36292SOL     OW10882  10.042   1.153   1.011
36292SOL    HW110883   9.984   1.200   1.074
36292SOL    HW210884  10.090   1.228   0.973
36293SOL     OW10885  10.192   0.757   1.809
36293SOL    HW110886  10.161   0.815   1.879
36293SOL    HW210887  10.204   0.820   1.734
36294SOL     OW10888   9.995   1.000   0.633
36294SOL    HW110889  10.065   0.991   0.700
36294SOL    HW210890   9.929   1.055   0.679
36295SOL     OW10891  10.030   1.166   1.800
36295SOL    HW110892  10.080   1.244   1.833
36295SOL    HW210893   9.948   1.207   1.766
36296SOL     OW10894   9.638   1.426   1.069
36296SOL    HW110895   9.560   1.382   1.031
36296SOL    HW210896   9.677   1.475   0.994
36297SOL     OW10897  10.771   1.489   1.388
36297SOL    HW110898  10.797   1.581   1.393
36297SOL    HW210899  10.688   1.491   1.440
36298SOL     OW10900   9.746   0.404   1.490
36298SOL    HW110901   9.822   0.343   1.485
36298SOL    HW210902   9.669   0.346   1.490
36299SOL     OW10903   9.535   1.723   0.490
36299SOL    HW110904   9.580   1.803   0.525
36299SOL    HW210905   9.582   1.710   0.406
36300SOL     OW10906  10.442   1.343   1.659
36300SOL    HW110907  10.484   1.340   1.746
36300SOL    HW210908  10.388   1.261   1.664
36301SOL     OW10909   9.561   1.418   0.518
36301SOL    HW110910   9.560   1.512   0.540
36301SOL    HW210911   9.492   1.381   0.576
36302SOL     OW10912   9.578   1.096   0.904
36302SOL    HW110913   9.576   1.018   0.961
36302SOL    HW210914   9.522   1.158   0.955
36303SOL     OW10915   9.914   1.797   1.410
36303SOL    HW110916   9.838   1.771   1.465
36303SOL    HW210917   9.932   1.889   1.441
36304SOL     OW10918   9.883   0.982   0.147
36304SOL    HW110919   9.929   1.040   0.085
36304SOL    HW210920   9.924   1.010   0.231
36305SOL     OW10921  10.934   0.088   1.499
36305SOL    HW110922  10.953   0.146   1.424
36305SOL    HW210923  10.902   0.149   1.567
36306SOL     OW10924   9.429   0.670   0.571
36306SOL    HW110925   9.413   0.577   0.590
36306SOL    HW210926   9.413   0.716   0.656
36307SOL     OW10927   9.383   1.595   0.128
36307SOL    HW110928   9.358   1.505   0.157
36307SOL    HW210929   9.351   1.648   0.203
36308SOL     OW10930  10.984   0.944   0.637
36308SOL    HW110931  11.059   0.886   0.660
36308SOL    HW210932  11.006   0.965   0.545
36309SOL     OW10933   9.431   0.740   1.582
36309SOL    HW110934   9.522   0.769   1.572
36309SOL    HW210935   9.391   0.819   1.623
36310SOL     OW10936   9.892   1.401   0.736
36310SOL    HW110937   9.864   1.308   0.748
36310SOL    HW210938   9.881   1.411   0.639
36311SOL     OW10939  10.600   1.232   1.429
36311SOL    HW110940  10.623   1.167   1.360
36311SOL    HW210941  10.671   1.219   1.496
36312SOL     OW10942  10.150   0.007   0.533
36312SOL    HW110943  10.177   0.097   0.509
36312SOL    HW210944  10.055   0.008   0.511
36313SOL     OW10945   9.493   0.938   1.258
36313SOL    HW110946   9.575   0.893   1.233
36313SOL    HW210947   9.425   0.890   1.209
36314SOL     OW10948  10.856   1.014   0.212
36314SOL    HW110949  10.787   0.951   0.239
36314SOL    HW210950  10.922   1.003   0.281
36315SOL     OW10951  10.505   1.796   1.594
36315SOL    HW110952  10.479   1.855   1.522
36315SOL    HW210953  10.514   1.710   1.549
36316SOL     OW10954   9.628   0.254   1.815
36316SOL    HW110955   9.676   0.334   1.840
36316SOL    HW210956   9.536   0.281   1.827
36317SOL     OW10957  10.756   1.431   0.945
36317SOL    HW110958  10.697   1.446   1.022
36317SOL    HW210959  10.742   1.336   0.927
36318SOL     OW10960  10.987   1.732   0.576
36318SOL    HW110961  10.947   1.696   0.496
36318SOL    HW210962  10.969   1.660   0.640
36319SOL     OW10963   9.897   0.717   0.276
36319SOL    HW110964   9.903   0.800   0.227
36319SOL    HW210965   9.837   0.736   0.349
36320SOL     OW10966  10.567   0.374   0.919
36320SOL    HW110967  10.480   0.333   0.937
36320SOL    HW210968  10.624   0.324   0.980
36321SOL     OW10969  10.873   1.655   0.323
36321SOL    HW110970  10.967   1.660   0.302
36321SOL    HW210971  10.836   1.645   0.233
36322SOL     OW10972  10.122   0.605   1.454
36322SOL    HW110973  10.088   0.583   1.544
36322SOL    HW210974  10.065   0.548   1.398
36323SOL     OW10975  10.692   0.500   1.660
36323SOL    HW110976  10.690   0.549   1.745
36323SOL    HW210977  10.754   0.428   1.680
36324SOL     OW10978  10.251   0.903   1.597
36324SOL    HW110979  10.307   0.830   1.563
36324SOL    HW210980  10.205   0.930   1.515
36325SOL     OW10981  10.325   0.384   1.251
36325SOL    HW110982  10.254   0.432   1.296
36325SOL    HW210983  10.284   0.358   1.167
36326SOL     OW10984  10.356   0.678   0.427
36326SOL    HW110985  10.374   0.684   0.522
36326SOL    HW210986  10.272   0.627   0.425
36327SOL     OW10987   9.414   0.836   0.789
36327SOL    HW110988   9.486   0.826   0.854
36327SOL    HW210989   9.374   0.919   0.818
36328SOL     OW10990   9.407   1.841   1.565
36328SOL    HW110991   9.424   1.816   1.658
36328SOL    HW210992   9.311   1.830   1.560
36329SOL     OW10993  10.224   0.344   0.218
36329SOL    HW110994  10.255   0.406   0.148
36329SOL    HW210995  10.182   0.275   0.164
36330SOL     OW10996  11.013   0.573   1.829
36330SOL    HW110997  10.977   0.648   1.776
36330SOL    HW210998  11.044   0.514   1.758
36331SOL     OW10999  10.681   1.172   0.565
36331SOL    HW111000  10.750   1.153   0.501
36331SOL    HW211001  10.630   1.239   0.517
36332SOL     OW11002   9.855   0.202   0.892
36332SOL    HW111003   9.872   0.217   0.987
36332SOL    HW211004   9.864   0.289   0.853
36333SOL     OW11005  10.325   1.443   0.493
36333SOL    HW111006  10.289   1.513   0.436
36333SOL    HW211007  10.311   1.479   0.582
36334SOL     OW11008   9.653   1.808   0.852
36334SOL    HW111009   9.704   1.725   0.865
36334SOL    HW211010   9.716   1.876   0.880
36335SOL     OW11011  11.091   1.044   0.884
36335SOL    HW111012  11.033   1.054   0.807
36335SOL    HW211013  11.029   1.032   0.958
36336SOL     OW11014  10.531   1.540   1.491
36336SOL    HW111015  10.513   1.471   1.557
36336SOL    HW211016  10.473   1.512   1.418
36337SOL     OW11017   9.633   0.959   0.274
36337SOL    HW111018   9.711   0.969   0.218
36337SOL    HW211019   9.602   0.870   0.251
36338SOL     OW11020  10.805   0.736   0.695
36338SOL    HW111021  10.782   0.709   0.785
36338SOL    HW211022  10.858   0.816   0.706
36339SOL     OW11023   9.777   1.266   1.713
36339SOL    HW111024   9.730   1.272   1.626
36339SOL    HW211025   9.701   1.265   1.773
36340SOL     OW11026  10.394   1.765   0.209
36340SOL    HW111027  10.342   1.708   0.269
36340SOL    HW211028  10.439   1.701   0.151
36341SOL     OW11029   9.478   0.298   1.498
36341SOL    HW111030   9.400   0.344   1.531
36341SOL    HW211031   9.457   0.205   1.521
36342SOL     OW11032   9.777   1.739   0.299
36342SOL    HW111033   9.813   1.785   0.377
36342SOL    HW211034   9.854   1.738   0.240
36343SOL     OW11035  10.736   0.101   0.407
36343SOL    HW111036  10.785   0.019   0.389
36343SOL    HW211037  10.804   0.150   0.456
36344SOL     OW11038   9.569   1.805   1.230
36344SOL    HW111039   9.612   1.748   1.295
36344SOL    HW211040   9.548   1.743   1.159
36345SOL     OW11041  10.271   1.688   0.883
36345SOL    HW111042  10.356   1.643   0.894
36345SOL    HW211043  10.227   1.634   0.815
36346SOL     OW11044   9.692   0.693   0.472
36346SOL    HW111045   9.694   0.594   0.478
36346SOL    HW211046   9.602   0.710   0.503
36347SOL     OW11047  10.843   0.232   1.718
36347SOL    HW111048  10.848   0.242   1.816
36347SOL    HW211049  10.775   0.164   1.713
36348SOL     OW11050   9.915   0.112   0.095
36348SOL    HW111051  10.000   0.065   0.091
36348SOL    HW211052   9.851   0.052   0.054
36349SOL     OW11053  10.058   0.281   1.758
36349SOL    HW111054  10.143   0.234   1.750
36349SOL    HW211055  10.022   0.243   1.840
36350SOL     OW11056  10.192   1.554   1.186
36350SOL    HW111057  10.173   1.518   1.097
36350SOL    HW211058  10.233   1.478   1.230
36351SOL     OW11059  10.630   0.601   1.408
36351SOL    HW111060  10.663   0.563   1.491
36351SOL    HW211061  10.666   0.692   1.410
36352SOL     OW11062  10.133   1.404   0.939
36352SOL    HW111063  10.221   1.391   0.899
36352SOL    HW211064  10.078   1.423   0.862
36353SOL     OW11065  10.254   0.530   0.906
36353SOL    HW111066  10.234   0.506   0.813
36353SOL    HW211067  10.266   0.441   0.944
36354SOL     OW11068   9.870   0.051   0.503
36354SOL    HW111069   9.783   0.041   0.544
36354SOL    HW211070   9.857   0.132   0.451
36355SOL     OW11071  10.755   1.164   0.004
36355SOL    HW111072  10.789   1.111   0.077
36355SOL    HW211073  10.695   1.225   0.049
36356SOL     OW11074   9.659  11.074   0.107
36356SOL    HW111075   9.623   0.059   0.079
36356SOL    HW211076   9.646  11.078   0.203
36357SOL     OW11077  10.264   0.262   0.478
36357SOL    HW111078  10.246   0.296   0.388
36357SOL    HW211079  10.360   0.280   0.485
36358SOL     OW11080  10.379   0.703   1.474
36358SOL    HW111081  10.305   0.641   1.480
36358SOL    HW211082  10.456   0.647   1.457
36359SOL     OW11083  10.551   1.585   0.800
36359SOL    HW111084  10.567   1.658   0.737
36359SOL    HW211085  10.640   1.570   0.836
36360SOL     OW11086   9.792   1.146   0.742
36360SOL    HW111087   9.721   1.121   0.804
36360SOL    HW211088   9.747   1.131   0.656
36361SOL     OW11089  10.612   1.813   0.619
36361SOL    HW111090  10.670   1.872   0.567
36361SOL    HW211091  10.566   1.875   0.677
36362SOL     OW11092  10.314   0.518   0.033
36362SOL    HW111093  10.285   0.609   0.015
36362SOL    HW211094  10.406   0.532   0.059
36363SOL     OW11095   9.363   0.572   1.386
36363SOL    HW111096   9.458   0.559   1.368
36363SOL    HW211097   9.366   0.638   1.458
36364SOL     OW11098   9.867   0.225   1.174
36364SOL    HW111099   9.908   0.168   1.240
36364SOL    HW211100   9.774   0.228   1.204
36365SOL     OW11101  10.200   0.442   0.660
36365SOL    HW111102  10.141   0.496   0.606
36365SOL    HW211103  10.216   0.365   0.602
36366SOL     OW11104  10.310   0.008   0.772
36366SOL    HW111105  10.266   0.034   0.690
36366SOL    HW211106  10.275  11.021   0.788
36367SOL     OW11107  10.737   1.169   0.884
36367SOL    HW111108  10.703   1.081   0.909
36367SOL    HW211109  10.731   1.165   0.787
36368SOL     OW11110  10.775   0.627   1.006
36368SOL    HW111111  10.715   0.551   1.004
36368SOL    HW211112  10.860   0.586   1.026
36369SOL     OW11113  11.086   0.841   0.394
36369SOL    HW111114   0.062   0.813   0.445
36369SOL    HW211115  11.090   0.777   0.321
36370SOL     OW11116   9.813   1.431   0.143
36370SOL    HW111117   9.730   1.417   0.192
36370SOL    HW211118   9.805   1.365   0.071
36371SOL     OW11119  10.714   0.580   0.079
36371SOL    HW111120  10.665   0.561   0.162
36371SOL    HW211121  10.795   0.531   0.089
36372SOL     OW11122   9.830   0.251   0.310
36372SOL    HW111123   9.852   0.197   0.231
36372SOL    HW211124   9.813   0.338   0.269
36373SOL     OW11125  11.039   1.226   1.595
36373SOL    HW111126   0.029   1.198   1.583
36373SOL    HW211127  11.043   1.321   1.578
36374SOL     OW11128  10.371   1.337   1.333
36374SOL    HW111129  10.292   1.315   1.384
36374SOL    HW211130  10.443   1.296   1.387
36375SOL     OW11131  10.932   1.631   1.643
36375SOL    HW111132  10.942   1.670   1.556
36375SOL    HW211133  11.009   1.573   1.650
36376SOL     OW11134  10.444   1.204   1.099
36376SOL    HW111135  10.379   1.249   1.156
36376SOL    HW211136  10.429   1.245   1.013
36377SOL     OW11137  10.912   1.090   1.094
36377SOL    HW111138  10.905   1.152   1.170
36377SOL    HW211139  10.850   1.132   1.033
36378SOL     OW11140  10.202   0.109   1.411
36378SOL    HW111141  10.228   0.079   1.322
36378SOL    HW211142  10.287   0.143   1.443
36379SOL     OW11143  10.310   1.126   1.738
36379SOL    HW111144  10.221   1.152   1.767
36379SOL    HW211145  10.291   1.047   1.684
36380SOL     OW11146  10.037   1.054   0.362
36380SOL    HW111147  10.023   1.028   0.455
36380SOL    HW211148  10.111   0.995   0.336
36381SOL     OW11149   9.727   0.788   1.255
36381SOL    HW111150   9.799   0.789   1.321
36381SOL    HW211151   9.681   0.704   1.276
36382SOL     OW11152  10.601   0.367   1.275
36382SOL    HW111153  10.623   0.454   1.315
36382SOL    HW211154  10.506   0.378   1.257
36383SOL     OW11155   9.384   1.571   1.329
36383SOL    HW111156   9.377   1.666   1.343
36383SOL    HW211157   9.477   1.551   1.350
36384SOL     OW11158   9.681   1.107   0.502
36384SOL    HW111159   9.666   1.186   0.449
36384SOL    HW211160   9.674   1.037   0.435
36385SOL     OW11161   9.860   0.538   0.859
36385SOL    HW111162   9.885   0.600   0.787
36385SOL    HW211163   9.925   0.561   0.929
36386SOL     OW11164  10.551   1.359   0.386
36386SOL    HW111165  10.597   1.438   0.419
36386SOL    HW211166  10.463   1.370   0.428
36387SOL     OW11167  10.613   1.474   1.168
36387SOL    HW111168  10.680   1.465   1.238
36387SOL    HW211169  10.546   1.408   1.194
36388SOL     OW11170  10.897   0.634   0.448
36388SOL    HW111171  10.846   0.661   0.527
36388SOL    HW211172  10.965   0.702   0.444
36389SOL     OW11173   9.650   1.501   1.316
36389SOL    HW111174   9.638   1.471   1.223
36389SOL    HW211175   9.744   1.526   1.314
36390SOL     OW11176   9.741   0.725   1.623
36390SOL    HW111177   9.804   0.776   1.569
36390SOL    HW211178   9.773   0.635   1.610
36391SOL     OW11179  10.918   0.761   1.670
36391SOL    HW111180  10.832   0.807   1.681
36391SOL    HW211181  10.963   0.821   1.609
36392SOL     OW11182  10.310   0.153   1.762
36392SOL    HW111183  10.354   0.239   1.744
36392SOL    HW211184  10.369   0.092   1.714
36393SOL     OW11185   9.794   0.058   1.733
36393SOL    HW111186   9.729   0.001   1.689
36393SOL    HW211187   9.740   0.137   1.750
36394SOL     OW11188   9.924   0.886   1.046
36394SOL    HW111189   9.939   0.981   1.035
36394SOL    HW211190   9.856   0.883   1.115
36395SOL     OW11191  10.682   0.894   1.019
36395SOL    HW111192  10.595   0.854   1.003
36395SOL    HW211193  10.735   0.813   1.028
36396SOL     OW11194  10.536   0.527   0.284
36396SOL    HW111195  10.541   0.453   0.347
36396SOL    HW211196  10.469   0.584   0.326
36397SOL     OW11197   9.605   0.221   1.253
36397SOL    HW111198   9.565   0.256   1.335
36397SOL    HW211199   9.565   0.134   1.246
36398SOL     OW11200   9.343   1.298   1.293
36398SOL    HW111201   9.375   1.240   1.365
36398SOL    HW211202   9.349   1.387   1.332
36399SOL     OW11203  10.032   0.619   1.042
36399SOL    HW111204  10.116   0.609   0.993
36399SOL    HW211205  10.010   0.714   1.035
36400SOL     OW11206   9.607   0.018   0.624
36400SOL    HW111207   9.579   0.110   0.620
36400SOL    HW211208   9.616   0.005   0.720
36401SOL     OW11209  10.933   0.403   0.315
36401SOL    HW111210  10.975   0.351   0.384
36401SOL    HW211211  10.901   0.481   0.366
36402SOL     OW11212  10.392   0.748   0.981
36402SOL    HW111213  10.371   0.761   1.076
36402SOL    HW211214  10.342   0.666   0.962
36403SOL     OW11215  10.303   1.559   1.721
36403SOL    HW111216  10.287   1.615   1.642
36403SOL    HW211217  10.342   1.479   1.682
36404SOL     OW11218   9.674   0.910   1.803
36404SOL    HW111219   9.760   0.924   1.845
36404SOL    HW211220   9.692   0.835   1.743
36405SOL     OW11221  10.809   0.223   0.151
36405SOL    HW111222  10.827   0.183   0.237
36405SOL    HW211223  10.855   0.307   0.164
36406SOL     OW11224  10.599   0.822   0.026
36406SOL    HW111225  10.643   0.738   0.052
36406SOL    HW211226  10.641   0.840  11.042
36407SOL     OW11227  10.383   1.361   0.853
36407SOL    HW111228  10.393   1.285   0.792
36407SOL    HW211229  10.449   1.425   0.822
36408SOL     OW11230   9.603   0.826   0.988
36408SOL    HW111231   9.698   0.841   0.974
36408SOL    HW211232   9.603   0.734   1.016
36409SOL     OW11233   9.642   0.540   1.003
36409SOL    HW111234   9.601   0.456   0.976
36409SOL    HW211235   9.719   0.543   0.942
36410SOL     OW11236  10.446   0.386   1.678
36410SOL    HW111237  10.404   0.441   1.748
36410SOL    HW211238  10.529   0.435   1.664
36411SOL     OW11239  10.461   0.209   1.473
36411SOL    HW111240  10.455   0.280   1.540
36411SOL    HW211241  10.504   0.254   1.400
36412SOL     OW11242   9.297   1.338   0.222
36412SOL    HW111243   9.213   1.345   0.172
36412SOL    HW211244   9.309   1.241   0.227
36413SOL     OW11245   9.404   1.771   0.931
36413SOL    HW111246   9.377   1.700   0.869
36413SOL    HW211247   9.497   1.787   0.902
36414SOL     OW11248   9.793   1.577   0.906
36414SOL    HW111249   9.865   1.642   0.912
36414SOL    HW211250   9.830   1.510   0.843
36415SOL     OW11251  10.288   0.762   1.224
36415SOL    HW111252  10.330   0.745   1.310
36415SOL    HW211253  10.196   0.774   1.248
36416SOL     OW11254   9.338   0.537   1.107
36416SOL    HW111255   9.415   0.511   1.055
36416SOL    HW211256   9.374   0.544   1.196
36417SOL     OW11257   9.520   0.512   1.715
36417SOL    HW111258   9.558   0.455   1.647
36417SOL    HW211259   9.491   0.590   1.665
36418SOL     OW11260  10.710   0.923   1.658
36418SOL    HW111261  10.712   1.020   1.668
36418SOL    HW211262  10.686   0.913   1.564
36419SOL     OW11263  10.119   0.570   0.377
36419SOL    HW111264  10.134   0.493   0.320
36419SOL    HW211265  10.042   0.615   0.337
36420SOL     OW11266   9.569   1.540   1.713
36420SOL    HW111267   9.547   1.599   1.787
36420SOL    HW211268   9.573   1.453   1.758
36421SOL     OW11269   9.991   0.468   1.263
36421SOL    HW111270   9.948   0.388   1.230
36421SOL    HW211271   9.993   0.526   1.185
36422SOL     OW11272  10.240   1.703   1.486
36422SOL    HW111273  10.216   1.673   1.398
36422SOL    HW211274  10.229   1.799   1.480
36423SOL     OW11275   9.777   0.486   0.203
36423SOL    HW111276   9.834   0.565   0.215
36423SOL    HW211277   9.690   0.529   0.197
36424SOL     OW11278   9.448   1.114   1.464
36424SOL    HW111279   9.449   1.065   1.549
36424SOL    HW211280   9.463   1.043   1.399
36425SOL     OW11281  10.628   1.060   1.225
36425SOL    HW111282  10.655   1.006   1.149
36425SOL    HW211283  10.558   1.115   1.183
36426SOL     OW11284  10.627   0.855   0.303
36426SOL    HW111285  10.551   0.812   0.343
36426SOL    HW211286  10.601   0.862   0.210
36427SOL     OW11287  11.034   1.764   1.135
36427SOL    HW111288   0.004   1.781   1.071
36427SOL    HW211289  11.017   1.668   1.124
36428SOL     OW11290  10.556   1.729   1.086
36428SOL    HW111291  10.639   1.742   1.035
36428SOL    HW211292  10.564   1.636   1.115
36429SOL     OW11293   9.409   1.247   1.039
36429SOL    HW111294   9.380   1.268   1.131
36429SOL    HW211295   9.329   1.210   1.001
36430SOL     OW11296  10.006   1.652   1.732
36430SOL    HW111297   9.958   1.736   1.733
36430SOL    HW211298  10.094   1.678   1.702
36431SOL     OW11299  10.195   0.094   0.075
36431SOL    HW111300  10.279   0.077   0.028
36431SOL    HW211301  10.216   0.058   0.162
36432SOL     OW11302  11.003   0.120   0.503
36432SOL    HW111303  11.079   0.119   0.441
36432SOL    HW211304  11.036   0.064   0.574
36433SOL     OW11305  10.680   1.576   0.499
36433SOL    HW111306  10.747   1.598   0.432
36433SOL    HW211307  10.645   1.663   0.524
36434SOL     OW11308   9.465   1.785   1.825
36434SOL    HW111309   9.420   1.716   1.876
36434SOL    HW211310   9.506   1.837   1.896
36435SOL     OW11311  10.577   0.938   0.667
36435SOL    HW111312  10.649   0.876   0.654
36435SOL    HW211313  10.610   1.016   0.618
36436SOL     OW11314  10.078   1.241   1.417
36436SOL    HW111315  10.058   1.300   1.492
36436SOL    HW211316  10.001   1.258   1.359
36437SOL     OW11317  10.006   1.614   0.161
36437SOL    HW111318  10.004   1.624   0.066
36437SOL    HW211319   9.940   1.542   0.173
36438SOL     OW11320   9.564   0.288   0.707
36438SOL    HW111321   9.482   0.335   0.682
36438SOL    HW211322   9.563   0.295   0.804
36439SOL     OW11323  10.536   1.607   0.038
36439SOL    HW111324  10.524   1.512   0.054
36439SOL    HW211325  10.474   1.623  11.065
36440SOL     OW11326  10.139   0.989   1.368
36440SOL    HW111327  10.194   1.004   1.291
36440SOL    HW211328  10.114   1.080   1.394
36441SOL     OW11329  10.230   0.900   0.279
36441SOL    HW111330  10.304   0.932   0.222
36441SOL    HW211331  10.261   0.813   0.308
36442SOL     OW11332  10.812   1.622   0.063
36442SOL    HW111333  10.716   1.616   0.048
36442SOL    HW211334  10.850   1.615  11.076
36443SOL     OW11335   9.654   1.284   1.484
36443SOL    HW111336   9.641   1.352   1.416
36443SOL    HW211337   9.578   1.224   1.470
36444SOL     OW11338  10.881   1.276   1.279
36444SOL    HW111339  10.973   1.283   1.310
36444SOL    HW211340  10.836   1.348   1.327
36445SOL     OW11341  10.370   1.122   0.724
36445SOL    HW111342  10.295   1.068   0.755
36445SOL    HW211343  10.431   1.054   0.693
36446SOL     OW11344  10.330   0.238   0.978
36446SOL    HW111345  10.313   0.183   0.900
36446SOL    HW211346  10.337   0.170   1.047
36447SOL     OW11347   9.915   1.465   0.475
36447SOL    HW111348   9.975   1.425   0.409
36447SOL    HW211349   9.844   1.501   0.420
36448SOL     OW11350   9.559   1.372   0.257
36448SOL    HW111351   9.464   1.359   0.243
36448SOL    HW211352   9.562   1.393   0.353
36449SOL     OW11353   9.438   0.992   1.696
36449SOL    HW111354   9.367   0.992   1.764
36449SOL    HW211355   9.519   0.975   1.750
36450SOL     OW11356   9.960   0.224   1.485
36450SOL    HW111357  10.041   0.183   1.450
36450SOL    HW211358   9.988   0.250   1.575
36451SOL     OW11359   9.396   0.401   0.045
36451SOL    HW111360   9.359   0.333   0.103
36451SOL    HW211361   9.336   0.400  11.070
36452SOL     OW11362  10.715   0.862   1.389
36452SOL    HW111363  10.676   0.929   1.329
36452SOL    HW211364  10.810   0.876   1.375
36453SOL     OW11365  10.500   1.341   0.111
36453SOL    HW111366  10.403   1.334   0.101
36453SOL    HW211367  10.512   1.330   0.207
36454SOL     OW11368   9.928   0.798   1.438
36454SOL    HW111369   9.983   0.877   1.424
36454SOL    HW211370   9.997   0.729   1.446
36455SOL     OW11371  10.796   1.767   0.957
36455SOL    HW111372  10.830   1.813   0.879
36455SOL    HW211373  10.873   1.771   1.015
36456SOL     OW11374  10.025   0.574   1.701
36456SOL    HW111375  10.077   0.637   1.756
36456SOL    HW211376  10.030   0.492   1.752
36457SOL     OW11377  10.778   1.193   1.625
36457SOL    HW111378  10.763   1.196   1.722
36457SOL    HW211379  10.875   1.204   1.622
36458SOL     OW11380   9.676   1.732   1.546
36458SOL    HW111381   9.588   1.772   1.537
36458SOL    HW211382   9.655   1.650   1.597
36459SOL     OW11383  10.999   0.877   1.229
36459SOL    HW111384  10.986   0.806   1.165
36459SOL    HW211385  10.967   0.956   1.180
36460SOL     OW11386  10.528   0.324   0.477
36460SOL    HW111387  10.583   0.245   0.471
36460SOL    HW211388  10.569   0.376   0.550
36461SOL     OW11389   9.894   0.742   0.678
36461SOL    HW111390   9.921   0.834   0.659
36461SOL    HW211391   9.828   0.724   0.609
36462SOL     OW11392  11.064   0.382   1.641
36462SOL    HW111393  11.040   0.414   1.553
36462SOL    HW211394  10.988   0.326   1.665
36463SOL     OW11395  11.034   0.918   1.489
36463SOL    HW111396  11.021   1.013   1.499
36463SOL    HW211397  11.030   0.902   1.393
36464SOL     OW11398  10.224   1.359   0.050
36464SOL    HW111399  10.154   1.366   0.116
36464SOL    HW211400  10.224   1.445   0.006
36465SOL     OW11401   9.956   1.794   0.910
36465SOL    HW111402   9.945   1.891   0.906
36465SOL    HW211403  10.049   1.783   0.931
36466SOL     OW11404  10.195   0.950   0.838
36466SOL    HW111405  10.246   0.881   0.884
36466SOL    HW211406  10.161   1.004   0.912
36467SOL     OW11407  10.396   0.986   0.091
36467SOL    HW111408  10.390   1.053   0.021
36467SOL    HW211409  10.469   0.928   0.061
36468SOL     OW11410   0.057   1.547   0.835
36468SOL    HW111411  11.077   1.528   0.787
36468SOL    HW211412   0.075   1.463   0.879
36469SOL     OW11413   9.547   1.312   1.860
36469SOL    HW111414   9.458   1.287   1.832
36469SOL    HW211415   9.535   1.316   1.957
36470SOL     OW11416   9.411   1.235   0.648
36470SOL    HW111417   9.419   1.198   0.737
36470SOL    HW211418   9.477   1.184   0.599
36471SOL     OW11419   9.976   1.407   1.609
36471SOL    HW111420   9.900   1.355   1.641
36471SOL    HW211421   9.967   1.492   1.656
36472SOL     OW11422  11.088   0.179   1.278
36472SOL    HW111423  11.066   0.087   1.253
36472SOL    HW211424   0.022   0.213   1.195
36473SOL     OW11425   9.711   0.429   0.517
36473SOL    HW111426   9.744   0.364   0.453
36473SOL    HW211427   9.680   0.373   0.590
36474SOL     OW11428  10.974   1.512   1.098
36474SOL    HW111429  10.898   1.494   1.042
36474SOL    HW211430  10.990   1.428   1.141
36475SOL     OW11431   9.623   0.545   1.289
36475SOL    HW111432   9.688   0.496   1.343
36475SOL    HW211433   9.650   0.527   1.197
36476SOL     OW11434  10.139   1.566   0.675
36476SOL    HW111435  10.143   1.588   0.581
36476SOL    HW211436  10.047   1.536   0.684
36477SOL     OW11437  10.738   0.244   1.081
36477SOL    HW111438  10.771   0.163   1.122
36477SOL    HW211439  10.695   0.290   1.157
36478SOL     OW11440  10.310   0.003   1.163
36478SOL    HW111441  10.267  11.018   1.153
36478SOL    HW211442  10.402  11.084   1.136
36479SOL     OW11443  10.101   1.329   0.323
36479SOL    HW111444  10.069   1.237   0.329
36479SOL    HW211445  10.186   1.324   0.367
36480SOL     OW11446   9.909   1.561   1.275
36480SOL    HW111447   9.909   1.643   1.328
36480SOL    HW211448   9.998   1.567   1.237
36481SOL     OW11449  10.628   0.481   0.674
36481SOL    HW111450  10.565   0.555   0.672
36481SOL    HW211451  10.614   0.445   0.764
36482SOL     OW11452  10.888   0.241   0.845
36482SOL    HW111453  10.839   0.238   0.930
36482SOL    HW211454  10.854   0.322   0.806
36483SOL     OW11455   9.364   1.078   0.280
36483SOL    HW111456   9.460   1.065   0.280
36483SOL    HW211457   9.334   0.988   0.304
36484SOL     OW11458  10.199   1.642   0.364
36484SOL    HW111459  10.123   1.622   0.306
36484SOL    HW211460  10.176   1.732   0.397
36485SOL     OW11461   9.536   0.607   1.995
36485SOL    HW111462   9.445   0.624   2.024
36485SOL    HW211463   9.534   0.623   1.900
36486SOL     OW11464   9.530   0.292   2.851
36486SOL    HW111465   9.551   0.281   2.944
36486SOL    HW211466   9.459   0.226   2.840
36487SOL     OW11467   9.316   0.406   2.508
36487SOL    HW111468   9.236   0.438   2.553
36487SOL    HW211469   9.280   0.337   2.451
36488SOL     OW11470   9.885   1.290   3.063
36488SOL    HW111471   9.801   1.293   3.014
36488SOL    HW211472   9.896   1.383   3.090
36489SOL     OW11473  10.877   1.524   2.577
36489SOL    HW111474  10.842   1.481   2.657
36489SOL    HW211475  10.808   1.507   2.510
36490SOL     OW11476  10.452   0.701   2.569
36490SOL    HW111477  10.479   0.793   2.556
36490SOL    HW211478  10.416   0.705   2.659
36491SOL     OW11479  11.079   0.622   2.082
36491SOL    HW111480  11.053   0.610   1.988
36491SOL    HW211481  11.036   0.545   2.124
36492SOL     OW11482  10.052   1.150   2.899
36492SOL    HW111483   9.991   1.200   2.956
36492SOL    HW211484  10.092   1.223   2.848
36493SOL     OW11485  10.196   0.755   3.670
36493SOL    HW111486  10.161   0.807   3.744
36493SOL    HW211487  10.202   0.821   3.598
36494SOL     OW11488  10.004   1.039   2.519
36494SOL    HW111489  10.062   1.007   2.589
36494SOL    HW211490   9.930   1.079   2.568
36495SOL     OW11491  10.024   1.168   3.662
36495SOL    HW111492  10.075   1.248   3.688
36495SOL    HW211493   9.941   1.207   3.630
36496SOL     OW11494   9.627   1.426   2.930
36496SOL    HW111495   9.556   1.378   2.884
36496SOL    HW211496   9.672   1.477   2.859
36497SOL     OW11497  10.765   1.494   3.254
36497SOL    HW111498  10.791   1.587   3.253
36497SOL    HW211499  10.684   1.497   3.309
36498SOL     OW11500   9.759   0.413   3.347
36498SOL    HW111501   9.834   0.349   3.344
36498SOL    HW211502   9.682   0.356   3.362
36499SOL     OW11503   9.538   1.719   2.345
36499SOL    HW111504   9.572   1.801   2.387
36499SOL    HW211505   9.594   1.712   2.266
36500SOL     OW11506  10.447   1.352   3.533
36500SOL    HW111507  10.505   1.336   3.609
36500SOL    HW211508  10.394   1.269   3.534
36501SOL     OW11509   9.575   1.449   2.398
36501SOL    HW111510   9.553   1.544   2.399
36501SOL    HW211511   9.503   1.408   2.450
36502SOL     OW11512   9.582   1.095   2.769
36502SOL    HW111513   9.571   1.021   2.829
36502SOL    HW211514   9.521   1.162   2.808
36503SOL     OW11515   9.907   1.803   3.270
36503SOL    HW111516   9.833   1.773   3.327
36503SOL    HW211517   9.928   1.892   3.306
36504SOL     OW11518   9.906   0.980   1.968
36504SOL    HW111519   9.946   1.043   1.904
36504SOL    HW211520   9.944   1.013   2.052
36505SOL     OW11521  10.915   0.111   3.347
36505SOL    HW111522  10.932   0.171   3.273
36505SOL    HW211523  10.873   0.170   3.412
36506SOL     OW11524   9.438   0.673   2.437
36506SOL    HW111525   9.403   0.587   2.466
36506SOL    HW211526   9.426   0.728   2.517
36507SOL     OW11527   9.373   1.585   1.979
36507SOL    HW111528   9.352   1.492   1.993
36507SOL    HW211529   9.345   1.626   2.063
36508SOL     OW11530  10.995   0.966   2.471
36508SOL    HW111531  11.052   0.891   2.493
36508SOL    HW211532  11.014   0.978   2.377
36509SOL     OW11533   9.445   0.744   3.450
36509SOL    HW111534   9.540   0.765   3.441
36509SOL    HW211535   9.412   0.827   3.488
36510SOL     OW11536   9.911   1.400   2.627
36510SOL    HW111537   9.868   1.312   2.635
36510SOL    HW211538   9.898   1.416   2.532
36511SOL     OW11539  10.599   1.237   3.297
36511SOL    HW111540  10.619   1.163   3.236
36511SOL    HW211541  10.670   1.226   3.364
36512SOL     OW11542   9.500   0.962   3.118
36512SOL    HW111543   9.584   0.920   3.094
36512SOL    HW211544   9.435   0.913   3.066
36513SOL     OW11545  10.824   0.976   2.062
36513SOL    HW111546  10.760   0.919   2.107
36513SOL    HW211547  10.899   0.976   2.122
36514SOL     OW11548  10.501   1.802   3.458
36514SOL    HW111549  10.482   1.865   3.387
36514SOL    HW211550  10.514   1.718   3.410
36515SOL     OW11551   9.625   0.260   3.664
36515SOL    HW111552   9.667   0.339   3.701
36515SOL    HW211553   9.533   0.271   3.693
36516SOL     OW11554  10.757   1.423   2.805
36516SOL    HW111555  10.703   1.442   2.885
36516SOL    HW211556  10.743   1.328   2.793
36517SOL     OW11557  10.996   1.720   2.441
36517SOL    HW111558  10.969   1.666   2.366
36517SOL    HW211559  10.969   1.662   2.515
36518SOL     OW11560   9.898   0.711   2.129
36518SOL    HW111561   9.903   0.799   2.087
36518SOL    HW211562   9.820   0.722   2.188
36519SOL     OW11563  10.570   0.368   2.782
36519SOL    HW111564  10.482   0.333   2.804
36519SOL    HW211565  10.626   0.318   2.844
36520SOL     OW11566  10.867   1.630   2.155
36520SOL    HW111567  10.923   1.708   2.161
36520SOL    HW211568  10.852   1.624   2.058
36521SOL     OW11569  10.116   0.612   3.319
36521SOL    HW111570  10.088   0.590   3.410
36521SOL    HW211571  10.062   0.551   3.265
36522SOL     OW11572  10.690   0.489   3.525
36522SOL    HW111573  10.688   0.540   3.607
36522SOL    HW211574  10.756   0.420   3.544
36523SOL     OW11575  10.249   0.907   3.451
36523SOL    HW111576  10.304   0.833   3.417
36523SOL    HW211577  10.203   0.932   3.368
36524SOL     OW11578  10.317   0.381   3.107
36524SOL    HW111579  10.243   0.414   3.159
36524SOL    HW211580  10.275   0.351   3.026
36525SOL     OW11581  10.356   0.704   2.302
36525SOL    HW111582  10.374   0.704   2.398
36525SOL    HW211583  10.267   0.665   2.296
36526SOL     OW11584   9.411   0.830   2.652
36526SOL    HW111585   9.480   0.831   2.720
36526SOL    HW211586   9.365   0.914   2.670
36527SOL     OW11587   9.420   1.835   3.425
36527SOL    HW111588   9.429   1.816   3.521
36527SOL    HW211589   9.325   1.832   3.412
36528SOL     OW11590  10.204   0.352   2.083
36528SOL    HW111591  10.266   0.409   2.036
36528SOL    HW211592  10.183   0.286   2.016
36529SOL     OW11593  11.019   0.565   3.689
36529SOL    HW111594  10.980   0.643   3.646
36529SOL    HW211595  11.047   0.513   3.611
36530SOL     OW11596  10.677   1.165   2.414
36530SOL    HW111597  10.734   1.137   2.342
36530SOL    HW211598  10.628   1.238   2.373
36531SOL     OW11599   9.853   0.196   2.753
36531SOL    HW111600   9.869   0.211   2.848
36531SOL    HW211601   9.847   0.285   2.717
36532SOL     OW11602  10.326   1.455   2.350
36532SOL    HW111603  10.294   1.521   2.286
36532SOL    HW211604  10.303   1.497   2.434
36533SOL     OW11605   9.648   1.807   2.706
36533SOL    HW111606   9.695   1.721   2.713
36533SOL    HW211607   9.718   1.869   2.733
36534SOL     OW11608  11.097   1.045   2.730
36534SOL    HW111609  11.039   1.061   2.653
36534SOL    HW211610  11.036   1.049   2.806
36535SOL     OW11611  10.524   1.545   3.355
36535SOL    HW111612  10.503   1.478   3.423
36535SOL    HW211613  10.475   1.510   3.279
36536SOL     OW11614   9.625   0.951   2.112
36536SOL    HW111615   9.698   0.972   2.051
36536SOL    HW211616   9.590   0.868   2.076
36537SOL     OW11617  10.785   0.750   2.588
36537SOL    HW111618  10.763   0.701   2.669
36537SOL    HW211619  10.860   0.803   2.616
36538SOL     OW11620   9.776   1.277   3.586
36538SOL    HW111621   9.733   1.280   3.498
36538SOL    HW211622   9.697   1.278   3.642
36539SOL     OW11623  10.436   1.764   2.113
36539SOL    HW111624  10.357   1.720   2.148
36539SOL    HW211625  10.437   1.737   2.020
36540SOL     OW11626   9.491   0.308   3.366
36540SOL    HW111627   9.408   0.352   3.390
36540SOL    HW211628   9.484   0.225   3.416
36541SOL     OW11629   9.772   1.739   2.176
36541SOL    HW111630   9.821   1.785   2.247
36541SOL    HW211631   9.843   1.717   2.114
36542SOL     OW11632  10.732   0.107   2.334
36542SOL    HW111633  10.720   0.091   2.239
36542SOL    HW211634  10.827   0.121   2.344
36543SOL     OW11635   9.551   1.788   3.082
36543SOL    HW111636   9.608   1.723   3.126
36543SOL    HW211637   9.534   1.747   2.996
36544SOL     OW11638  10.285   1.690   2.750
36544SOL    HW111639  10.368   1.640   2.753
36544SOL    HW211640  10.234   1.644   2.680
36545SOL     OW11641   9.683   0.690   2.314
36545SOL    HW111642   9.693   0.596   2.337
36545SOL    HW211643   9.594   0.709   2.351
36546SOL     OW11644  10.838   0.233   3.581
36546SOL    HW111645  10.844   0.244   3.679
36546SOL    HW211646  10.776   0.160   3.577
36547SOL     OW11647   9.942   0.121   1.952
36547SOL    HW111648   9.968   0.030   1.976
36547SOL    HW211649   9.883   0.105   1.875
36548SOL     OW11650  10.060   0.291   3.616
36548SOL    HW111651  10.143   0.239   3.613
36548SOL    HW211652  10.015   0.249   3.691
36549SOL     OW11653  10.199   1.543   3.058
36549SOL    HW111654  10.190   1.511   2.967
36549SOL    HW211655  10.253   1.474   3.100
36550SOL     OW11656  10.607   0.600   3.286
36550SOL    HW111657  10.648   0.562   3.366
36550SOL    HW211658  10.652   0.687   3.280
36551SOL     OW11659  10.139   1.398   2.803
36551SOL    HW111660  10.226   1.390   2.757
36551SOL    HW211661  10.077   1.406   2.729
36552SOL     OW11662  10.250   0.524   2.770
36552SOL    HW111663  10.228   0.500   2.677
36552SOL    HW211664  10.273   0.437   2.806
36553SOL     OW11665   9.852   0.050   2.361
36553SOL    HW111666   9.767   0.034   2.408
36553SOL    HW211667   9.824   0.121   2.300
36554SOL     OW11668  10.746   1.168   1.884
36554SOL    HW111669  10.764   1.096   1.947
36554SOL    HW211670  10.671   1.213   1.924
36555SOL     OW11671   9.592   0.060   2.084
36555SOL    HW111672   9.650   0.124   2.042
36555SOL    HW211673   9.650  11.085   2.096
36556SOL     OW11674  10.230   0.237   2.346
36556SOL    HW111675  10.210   0.285   2.264
36556SOL    HW211676  10.326   0.253   2.351
36557SOL     OW11677  10.370   0.711   3.331
36557SOL    HW111678  10.297   0.646   3.335
36557SOL    HW211679  10.450   0.655   3.321
36558SOL     OW11680  10.545   1.579   2.661
36558SOL    HW111681  10.560   1.648   2.595
36558SOL    HW211682  10.634   1.565   2.698
36559SOL     OW11683   9.778   1.160   2.602
36559SOL    HW111684   9.704   1.134   2.660
36559SOL    HW211685   9.740   1.141   2.513
36560SOL     OW11686  10.585   1.815   2.458
36560SOL    HW111687  10.630   1.875   2.395
36560SOL    HW211688  10.544   1.877   2.518
36561SOL     OW11689  10.348   0.540   1.882
36561SOL    HW111690  10.304   0.623   1.856
36561SOL    HW211691  10.416   0.571   1.945
36562SOL     OW11692   9.371   0.569   3.253
36562SOL    HW111693   9.465   0.554   3.234
36562SOL    HW211694   9.376   0.639   3.320
36563SOL     OW11695   9.867   0.202   3.035
36563SOL    HW111696   9.912   0.161   3.109
36563SOL    HW211697   9.774   0.204   3.067
36564SOL     OW11698  10.194   0.439   2.525
36564SOL    HW111699  10.143   0.495   2.465
36564SOL    HW211700  10.207   0.357   2.473
36565SOL     OW11701  10.333  11.087   2.662
36565SOL    HW111702  10.324   0.038   2.582
36565SOL    HW211703  10.259  11.026   2.659
36566SOL     OW11704  10.743   1.161   2.747
36566SOL    HW111705  10.702   1.078   2.775
36566SOL    HW211706  10.723   1.163   2.653
36567SOL     OW11707  10.769   0.622   2.850
36567SOL    HW111708  10.709   0.546   2.855
36567SOL    HW211709  10.853   0.584   2.878
36568SOL     OW11710  11.100   0.823   2.246
36568SOL    HW111711   0.056   0.779   2.311
36568SOL    HW211712  11.099   0.754   2.175
36569SOL     OW11713   9.810   1.424   1.988
36569SOL    HW111714   9.731   1.415   2.046
36569SOL    HW211715   9.781   1.378   1.909
36570SOL     OW11716  10.709   0.589   1.936
36570SOL    HW111717  10.660   0.562   2.016
36570SOL    HW211718  10.801   0.581   1.964
36571SOL     OW11719   9.822   0.242   2.169
36571SOL    HW111720   9.871   0.211   2.091
36571SOL    HW211721   9.796   0.332   2.138
36572SOL     OW11722  11.043   1.241   3.460
36572SOL    HW111723   0.029   1.201   3.446
36572SOL    HW211724  11.065   1.315   3.518
36573SOL     OW11725  10.373   1.347   3.196
36573SOL    HW111726  10.292   1.313   3.236
36573SOL    HW211727  10.442   1.302   3.249
36574SOL     OW11728  10.937   1.631   3.506
36574SOL    HW111729  10.946   1.656   3.413
36574SOL    HW211730  11.007   1.567   3.517
36575SOL     OW11731  10.456   1.208   2.958
36575SOL    HW111732  10.382   1.229   3.016
36575SOL    HW211733  10.427   1.243   2.873
36576SOL     OW11734  10.931   1.104   2.956
36576SOL    HW111735  10.915   1.164   3.031
36576SOL    HW211736  10.866   1.136   2.892
36577SOL     OW11737  10.199   0.102   3.256
36577SOL    HW111738  10.233   0.084   3.167
36577SOL    HW211739  10.281   0.125   3.302
36578SOL     OW11740  10.311   1.128   3.596
36578SOL    HW111741  10.222   1.155   3.625
36578SOL    HW211742  10.292   1.048   3.543
36579SOL     OW11743  10.024   1.058   2.199
36579SOL    HW111744  10.008   1.050   2.294
36579SOL    HW211745  10.101   0.999   2.185
36580SOL     OW11746   9.729   0.798   3.111
36580SOL    HW111747   9.798   0.798   3.181
36580SOL    HW211748   9.679   0.717   3.130
36581SOL     OW11749  10.594   0.381   3.137
36581SOL    HW111750  10.613   0.460   3.190
36581SOL    HW211751  10.499   0.395   3.118
36582SOL     OW11752   9.378   1.568   3.195
36582SOL    HW111753   9.374   1.659   3.162
36582SOL    HW211754   9.474   1.549   3.195
36583SOL     OW11755   9.672   1.098   2.362
36583SOL    HW111756   9.664   1.168   2.296
36583SOL    HW211757   9.653   1.020   2.309
36584SOL     OW11758   9.838   0.552   2.695
36584SOL    HW111759   9.875   0.616   2.630
36584SOL    HW211760   9.902   0.559   2.769
36585SOL     OW11761  10.559   1.373   2.235
36585SOL    HW111762  10.610   1.444   2.278
36585SOL    HW211763  10.472   1.386   2.277
36586SOL     OW11764  10.614   1.471   3.032
36586SOL    HW111765  10.678   1.465   3.105
36586SOL    HW211766  10.550   1.402   3.055
36587SOL     OW11767  10.893   0.631   2.328
36587SOL    HW111768  10.842   0.675   2.398
36587SOL    HW211769  10.942   0.704   2.288
36588SOL     OW11770   9.648   1.499   3.179
36588SOL    HW111771   9.637   1.470   3.086
36588SOL    HW211772   9.742   1.522   3.179
36589SOL     OW11773   9.738   0.723   3.479
36589SOL    HW111774   9.798   0.775   3.422
36589SOL    HW211775   9.778   0.635   3.472
36590SOL     OW11776  10.928   0.761   3.533
36590SOL    HW111777  10.846   0.810   3.552
36590SOL    HW211778  10.969   0.821   3.468
36591SOL     OW11779  10.288   0.144   3.613
36591SOL    HW111780  10.344   0.221   3.595
36591SOL    HW211781  10.348   0.072   3.586
36592SOL     OW11782   9.797   0.060   3.594
36592SOL    HW111783   9.728   0.002   3.560
36592SOL    HW211784   9.744   0.140   3.616
36593SOL     OW11785   9.923   0.875   2.920
36593SOL    HW111786   9.938   0.970   2.910
36593SOL    HW211787   9.852   0.872   2.986
36594SOL     OW11788  10.687   0.898   2.886
36594SOL    HW111789  10.601   0.859   2.867
36594SOL    HW211790  10.740   0.817   2.895
36595SOL     OW11791  10.522   0.526   2.139
36595SOL    HW111792  10.539   0.448   2.195
36595SOL    HW211793  10.473   0.584   2.199
36596SOL     OW11794   9.613   0.196   3.133
36596SOL    HW111795   9.583   0.248   3.210
36596SOL    HW211796   9.543   0.129   3.127
36597SOL     OW11797   9.348   1.296   3.149
36597SOL    HW111798   9.375   1.242   3.226
36597SOL    HW211799   9.354   1.387   3.181
36598SOL     OW11800  10.005   0.606   2.896
36598SOL    HW111801  10.095   0.596   2.860
36598SOL    HW211802   9.991   0.703   2.897
36599SOL     OW11803   9.605   0.033   2.472
36599SOL    HW111804   9.581   0.126   2.483
36599SOL    HW211805   9.615   0.009   2.566
36600SOL     OW11806  10.942   0.392   2.193
36600SOL    HW111807  10.979   0.322   2.249
36600SOL    HW211808  10.914   0.459   2.258
36601SOL     OW11809  10.370   0.751   2.825
36601SOL    HW111810  10.353   0.764   2.920
36601SOL    HW211811  10.329   0.663   2.810
36602SOL     OW11812  10.294   1.566   3.574
36602SOL    HW111813  10.288   1.619   3.491
36602SOL    HW211814  10.332   1.482   3.543
36603SOL     OW11815   9.667   0.914   3.649
36603SOL    HW111816   9.748   0.933   3.698
36603SOL    HW211817   9.692   0.837   3.594
36604SOL     OW11818  10.831   0.241   1.983
36604SOL    HW111819  10.776   0.183   2.038
36604SOL    HW211820  10.868   0.303   2.049
36605SOL     OW11821  10.613   0.835   1.887
36605SOL    HW111822  10.656   0.749   1.904
36605SOL    HW211823  10.651   0.860   1.800
36606SOL     OW11824  10.387   1.361   2.714
36606SOL    HW111825  10.391   1.290   2.647
36606SOL    HW211826  10.451   1.428   2.683
36607SOL     OW11827   9.591   0.821   2.860
36607SOL    HW111828   9.680   0.846   2.831
36607SOL    HW211829   9.603   0.727   2.880
36608SOL     OW11830   9.640   0.542   2.867
36608SOL    HW111831   9.602   0.455   2.846
36608SOL    HW211832   9.708   0.550   2.795
36609SOL     OW11833  10.443   0.378   3.527
36609SOL    HW111834  10.403   0.425   3.602
36609SOL    HW211835  10.529   0.423   3.519
36610SOL     OW11836  10.454   0.190   3.323
36610SOL    HW111837  10.441   0.264   3.385
36610SOL    HW211838  10.498   0.233   3.249
36611SOL     OW11839   9.321   1.320   2.049
36611SOL    HW111840   9.226   1.332   2.027
36611SOL    HW211841   9.320   1.229   2.087
36612SOL     OW11842   9.406   1.787   2.805
36612SOL    HW111843   9.374   1.717   2.744
36612SOL    HW211844   9.497   1.800   2.770
36613SOL     OW11845   9.786   1.580   2.778
36613SOL    HW111846   9.857   1.643   2.800
36613SOL    HW211847   9.833   1.513   2.725
36614SOL     OW11848  10.291   0.773   3.082
36614SOL    HW111849  10.331   0.750   3.168
36614SOL    HW211850  10.197   0.773   3.105
36615SOL     OW11851   9.333   0.515   2.968
36615SOL    HW111852   9.410   0.514   2.911
36615SOL    HW211853   9.371   0.532   3.055
36616SOL     OW11854   9.518   0.522   3.587
36616SOL    HW111855   9.567   0.472   3.521
36616SOL    HW211856   9.488   0.600   3.537
36617SOL     OW11857  10.708   0.917   3.533
36617SOL    HW111858  10.709   1.014   3.542
36617SOL    HW211859  10.684   0.906   3.439
36618SOL     OW11860  10.121   0.585   2.249
36618SOL    HW111861  10.135   0.511   2.187
36618SOL    HW211862  10.043   0.630   2.211
36619SOL     OW11863   9.562   1.543   3.578
36619SOL    HW111864   9.550   1.614   3.642
36619SOL    HW211865   9.564   1.463   3.635
36620SOL     OW11866   9.994   0.462   3.128
36620SOL    HW111867   9.942   0.386   3.100
36620SOL    HW211868   9.988   0.521   3.050
36621SOL     OW11869  10.242   1.702   3.348
36621SOL    HW111870  10.221   1.667   3.261
36621SOL    HW211871  10.233   1.799   3.335
36622SOL     OW11872   9.762   0.477   2.066
36622SOL    HW111873   9.820   0.555   2.071
36622SOL    HW211874   9.674   0.520   2.057
36623SOL     OW11875   9.427   1.122   3.332
36623SOL    HW111876   9.431   1.068   3.413
36623SOL    HW211877   9.455   1.058   3.263
36624SOL     OW11878  10.630   1.060   3.096
36624SOL    HW111879  10.657   1.008   3.018
36624SOL    HW211880  10.569   1.124   3.054
36625SOL     OW11881  10.617   0.837   2.163
36625SOL    HW111882  10.536   0.814   2.211
36625SOL    HW211883  10.587   0.855   2.073
36626SOL     OW11884  11.028   1.753   2.985
36626SOL    HW111885   0.007   1.770   2.932
36626SOL    HW211886  11.020   1.655   2.980
36627SOL     OW11887  10.566   1.729   2.976
36627SOL    HW111888  10.648   1.743   2.926
36627SOL    HW211889  10.569   1.632   2.992
36628SOL     OW11890   9.410   1.252   2.894
36628SOL    HW111891   9.380   1.262   2.986
36628SOL    HW211892   9.332   1.215   2.850
36629SOL     OW11893  10.007   1.642   3.598
36629SOL    HW111894   9.975   1.733   3.587
36629SOL    HW211895  10.098   1.647   3.568
36630SOL     OW11896  11.014   0.140   2.364
36630SOL    HW111897  11.083   0.129   2.295
36630SOL    HW211898  11.039   0.073   2.429
36631SOL     OW11899  10.687   1.581   2.362
36631SOL    HW111900  10.742   1.601   2.283
36631SOL    HW211901  10.641   1.666   2.379
36632SOL     OW11902   9.462   1.788   3.688
36632SOL    HW111903   9.419   1.717   3.741
36632SOL    HW211904   9.506   1.839   3.758
36633SOL     OW11905  10.574   0.943   2.543
36633SOL    HW111906  10.647   0.879   2.552
36633SOL    HW211907  10.611   1.009   2.482
36634SOL     OW11908  10.093   1.252   3.279
36634SOL    HW111909  10.071   1.306   3.357
36634SOL    HW211910  10.015   1.266   3.223
36635SOL     OW11911   9.998   1.612   2.021
36635SOL    HW111912  10.004   1.632   1.926
36635SOL    HW211913   9.940   1.534   2.021
36636SOL     OW11914   9.556   0.294   2.564
36636SOL    HW111915   9.472   0.341   2.544
36636SOL    HW211916   9.561   0.303   2.660
36637SOL     OW11917  10.526   1.630   1.885
36637SOL    HW111918  10.515   1.538   1.912
36637SOL    HW211919  10.461   1.639   1.812
36638SOL     OW11920  10.129   0.995   3.230
36638SOL    HW111921  10.171   1.009   3.145
36638SOL    HW211922  10.117   1.088   3.261
36639SOL     OW11923  10.224   0.900   2.132
36639SOL    HW111924  10.297   0.930   2.074
36639SOL    HW211925  10.266   0.828   2.182
36640SOL     OW11926  10.836   1.633   1.893
36640SOL    HW111927  10.739   1.632   1.887
36640SOL    HW211928  10.863   1.631   1.799
36641SOL     OW11929   9.652   1.283   3.357
36641SOL    HW111930   9.642   1.352   3.289
36641SOL    HW211931   9.574   1.227   3.343
36642SOL     OW11932  10.882   1.294   3.140
36642SOL    HW111933  10.954   1.281   3.202
36642SOL    HW211934  10.830   1.365   3.184
36643SOL     OW11935  10.367   1.116   2.592
36643SOL    HW111936  10.297   1.062   2.632
36643SOL    HW211937  10.434   1.051   2.568
36644SOL     OW11938  10.323   0.257   2.844
36644SOL    HW111939  10.313   0.194   2.771
36644SOL    HW211940  10.338   0.196   2.918
36645SOL     OW11941   9.937   1.490   2.361
36645SOL    HW111942   9.987   1.446   2.289
36645SOL    HW211943   9.859   1.524   2.315
36646SOL     OW11944   9.567   1.388   2.139
36646SOL    HW111945   9.472   1.368   2.127
36646SOL    HW211946   9.571   1.408   2.234
36647SOL     OW11947   9.432   0.991   3.559
36647SOL    HW111948   9.362   0.985   3.629
36647SOL    HW211949   9.515   0.970   3.608
36648SOL     OW11950   9.964   0.221   3.354
36648SOL    HW111951  10.044   0.173   3.323
36648SOL    HW211952   9.992   0.248   3.444
36649SOL     OW11953   9.377   0.350   1.900
36649SOL    HW111954   9.286   0.364   1.873
36649SOL    HW211955   9.422   0.425   1.857
36650SOL     OW11956  10.714   0.855   3.256
36650SOL    HW111957  10.675   0.922   3.197
36650SOL    HW211958  10.809   0.867   3.240
36651SOL     OW11959   9.342   0.163   2.171
36651SOL    HW111960   9.335   0.230   2.101
36651SOL    HW211961   9.433   0.130   2.158
36652SOL     OW11962  10.508   1.342   1.966
36652SOL    HW111963  10.414   1.319   1.964
36652SOL    HW211964  10.524   1.355   2.062
36653SOL     OW11965   9.929   0.804   3.297
36653SOL    HW111966   9.983   0.883   3.282
36653SOL    HW211967   9.999   0.737   3.308
36654SOL     OW11968  10.801   1.763   2.824
36654SOL    HW111969  10.837   1.790   2.739
36654SOL    HW211970  10.879   1.769   2.881
36655SOL     OW11971  10.027   0.573   3.564
36655SOL    HW111972  10.078   0.633   3.621
36655SOL    HW211973  10.040   0.486   3.605
36656SOL     OW11974  10.780   1.196   3.486
36656SOL    HW111975  10.769   1.195   3.584
36656SOL    HW211976  10.876   1.207   3.478
36657SOL     OW11977   9.681   1.729   3.418
36657SOL    HW111978   9.596   1.773   3.401
36657SOL    HW211979   9.651   1.644   3.454
36658SOL     OW11980  10.999   0.879   3.087
36658SOL    HW111981  11.001   0.808   3.021
36658SOL    HW211982  10.967   0.956   3.034
36659SOL     OW11983  10.532   0.297   2.317
36659SOL    HW111984  10.603   0.231   2.325
36659SOL    HW211985  10.552   0.356   2.393
36660SOL     OW11986   9.903   0.755   2.518
36660SOL    HW111987   9.938   0.842   2.496
36660SOL    HW211988   9.830   0.745   2.455
36661SOL     OW11989  11.068   0.380   3.499
36661SOL    HW111990  11.047   0.417   3.413
36661SOL    HW211991  10.991   0.324   3.521
36662SOL     OW11992  11.027   0.924   3.350
36662SOL    HW111993  11.034   1.020   3.356
36662SOL    HW211994  11.023   0.907   3.254
36663SOL     OW11995  10.193   1.355   1.898
36663SOL    HW111996  10.157   1.379   1.985
36663SOL    HW211997  10.206   1.442   1.855
36664SOL     OW11998   9.957   1.805   2.782
36664SOL    HW111999   9.941   1.900   2.767
36664SOL    HW212000  10.053   1.798   2.784
36665SOL     OW12001  10.195   0.948   2.714
36665SOL    HW112002  10.252   0.881   2.754
36665SOL    HW212003  10.163   0.998   2.791
36666SOL     OW12004  10.412   0.983   1.959
36666SOL    HW112005  10.389   1.043   1.887
36666SOL    HW212006  10.488   0.933   1.921
36667SOL     OW12007   0.055   1.545   2.706
36667SOL    HW112008  11.075   1.524   2.658
36667SOL    HW212009   0.068   1.466   2.760
36668SOL     OW12010   9.548   1.316   3.728
36668SOL    HW112011   9.474   1.257   3.708
36668SOL    HW212012   9.540   1.324   3.825
36669SOL     OW12013   9.408   1.265   2.510
36669SOL    HW112014   9.349   1.213   2.566
36669SOL    HW212015   9.471   1.199   2.478
36670SOL     OW12016   9.989   1.397   3.477
36670SOL    HW112017   9.911   1.348   3.509
36670SOL    HW212018   9.977   1.483   3.522
36671SOL     OW12019  11.084   0.193   3.103
36671SOL    HW112020  11.070   0.101   3.127
36671SOL    HW212021   0.017   0.186   3.014
36672SOL     OW12022   9.727   0.425   2.394
36672SOL    HW112023   9.753   0.355   2.333
36672SOL    HW212024   9.685   0.378   2.467
36673SOL     OW12025  10.995   1.493   2.963
36673SOL    HW112026  10.918   1.462   2.914
36673SOL    HW212027  11.012   1.419   3.023
36674SOL     OW12028   9.626   0.548   3.148
36674SOL    HW112029   9.695   0.506   3.204
36674SOL    HW212030   9.656   0.532   3.057
36675SOL     OW12031  10.139   1.591   2.539
36675SOL    HW112032  10.136   1.634   2.453
36675SOL    HW212033  10.051   1.551   2.545
36676SOL     OW12034  10.732   0.242   2.954
36676SOL    HW112035  10.779   0.174   3.003
36676SOL    HW212036  10.686   0.291   3.027
36677SOL     OW12037  10.308   0.003   3.016
36677SOL    HW112038  10.264  11.019   3.013
36677SOL    HW212039  10.401  11.081   2.995
36678SOL     OW12040  10.107   1.342   2.180
36678SOL    HW112041  10.074   1.251   2.177
36678SOL    HW212042  10.182   1.336   2.241
36679SOL     OW12043   9.908   1.563   3.133
36679SOL    HW112044   9.906   1.648   3.182
36679SOL    HW212045  10.000   1.562   3.103
36680SOL     OW12046  10.667   0.051   2.083
36680SOL    HW112047  10.688   0.003   2.001
36680SOL    HW212048  10.570   0.047   2.088
36681SOL     OW12049  10.580   0.453   2.524
36681SOL    HW112050  10.542   0.543   2.526
36681SOL    HW212051  10.573   0.425   2.617
36682SOL     OW12052  10.899   0.238   2.717
36682SOL    HW112053  10.844   0.230   2.796
36682SOL    HW212054  10.856   0.310   2.670
36683SOL     OW12055   9.384   1.067   2.145
36683SOL    HW112056   9.471   1.026   2.128
36683SOL    HW212057   9.331   0.991   2.174
36684SOL     OW12058  10.202   1.657   2.207
36684SOL    HW112059  10.129   1.640   2.145
36684SOL    HW212060  10.174   1.737   2.255
36685SOL     OW12061   9.536   0.637   3.857
36685SOL    HW112062   9.442   0.623   3.878
36685SOL    HW212063   9.540   0.623   3.761
36686SOL     OW12064   9.526   0.295   4.715
36686SOL    HW112065   9.549   0.280   4.808
36686SOL    HW212066   9.459   0.226   4.700
36687SOL     OW12067   9.319   0.401   4.367
36687SOL    HW112068   9.241   0.428   4.418
36687SOL    HW212069   9.285   0.327   4.315
36688SOL     OW12070   9.880   1.290   4.925
36688SOL    HW112071   9.793   1.291   4.883
36688SOL    HW212072   9.892   1.384   4.949
36689SOL     OW12073  10.864   1.535   4.436
36689SOL    HW112074  10.849   1.481   4.515
36689SOL    HW212075  10.805   1.499   4.369
36690SOL     OW12076  10.454   0.690   4.428
36690SOL    HW112077  10.482   0.782   4.411
36690SOL    HW212078  10.420   0.699   4.519
36691SOL     OW12079  11.081   0.611   3.941
36691SOL    HW112080  11.053   0.598   3.848
36691SOL    HW212081  11.040   0.533   3.984
36692SOL     OW12082  10.037   1.156   4.753
36692SOL    HW112083   9.977   1.199   4.818
36692SOL    HW212084  10.078   1.234   4.713
36693SOL     OW12085  10.185   0.763   5.534
36693SOL    HW112086  10.153   0.818   5.607
36693SOL    HW212087  10.194   0.827   5.461
36694SOL     OW12088   9.997   1.043   4.383
36694SOL    HW112089  10.061   1.010   4.448
36694SOL    HW212090   9.930   1.088   4.438
36695SOL     OW12091  10.033   1.166   5.526
36695SOL    HW112092  10.083   1.245   5.556
36695SOL    HW212093   9.952   1.206   5.491
36696SOL     OW12094   9.637   1.421   4.786
36696SOL    HW112095   9.566   1.378   4.737
36696SOL    HW212096   9.686   1.473   4.719
36697SOL     OW12097  10.767   1.490   5.122
36697SOL    HW112098  10.793   1.582   5.121
36697SOL    HW212099  10.683   1.493   5.172
36698SOL     OW12100   9.747   0.411   5.224
36698SOL    HW112101   9.822   0.349   5.217
36698SOL    HW212102   9.671   0.351   5.227
36699SOL     OW12103   9.530   1.709   4.199
36699SOL    HW112104   9.561   1.785   4.252
36699SOL    HW212105   9.595   1.711   4.126
36700SOL     OW12106  10.444   1.347   5.398
36700SOL    HW112107  10.485   1.343   5.486
36700SOL    HW212108  10.388   1.267   5.400
36701SOL     OW12109   9.567   1.435   4.253
36701SOL    HW112110   9.568   1.532   4.256
36701SOL    HW212111   9.500   1.414   4.320
36702SOL     OW12112   9.575   1.096   4.623
36702SOL    HW112113   9.580   1.018   4.680
36702SOL    HW212114   9.521   1.157   4.677
36703SOL     OW12115   9.896   1.801   5.123
36703SOL    HW112116   9.829   1.772   5.188
36703SOL    HW212117   9.923   1.888   5.159
36704SOL     OW12118   9.885   0.993   3.833
36704SOL    HW112119   9.937   1.045   3.767
36704SOL    HW212120   9.926   1.024   3.916
36705SOL     OW12121  10.919   0.112   5.204
36705SOL    HW112122  10.898   0.158   5.122
36705SOL    HW212123  10.869   0.162   5.271
36706SOL     OW12124   9.425   0.665   4.291
36706SOL    HW112125   9.408   0.573   4.316
36706SOL    HW212126   9.422   0.713   4.376
36707SOL     OW12127   9.361   1.592   3.841
36707SOL    HW112128   9.356   1.497   3.856
36707SOL    HW212129   9.342   1.629   3.928
36708SOL     OW12130  10.980   0.938   4.313
36708SOL    HW112131  11.056   0.880   4.325
36708SOL    HW212132  11.009   0.993   4.238
36709SOL     OW12133   9.448   0.745   5.305
36709SOL    HW112134   9.543   0.765   5.294
36709SOL    HW212135   9.419   0.825   5.351
36710SOL     OW12136   9.915   1.406   4.485
36710SOL    HW112137   9.870   1.320   4.495
36710SOL    HW212138   9.905   1.422   4.390
36711SOL     OW12139  10.601   1.236   5.156
36711SOL    HW112140  10.623   1.163   5.095
36711SOL    HW212141  10.672   1.228   5.224
36712SOL     OW12142  10.147  11.101   4.256
36712SOL    HW112143  10.175   0.089   4.230
36712SOL    HW212144  10.051   0.002   4.236
36713SOL     OW12145   9.509   0.971   5.000
36713SOL    HW112146   9.594   0.925   4.989
36713SOL    HW212147   9.447   0.912   4.956
36714SOL     OW12148  10.829   0.977   3.918
36714SOL    HW112149  10.766   0.927   3.973
36714SOL    HW212150  10.903   0.993   3.978
36715SOL     OW12151  10.505   1.791   5.326
36715SOL    HW112152  10.504   1.854   5.253
36715SOL    HW212153  10.518   1.706   5.281
36716SOL     OW12154   9.627   0.252   5.528
36716SOL    HW112155   9.665   0.332   5.568
36716SOL    HW212156   9.533   0.259   5.552
36717SOL     OW12157  10.762   1.427   4.672
36717SOL    HW112158  10.704   1.445   4.749
36717SOL    HW212159  10.746   1.332   4.656
36718SOL     OW12160  10.990   1.726   4.314
36718SOL    HW112161  10.967   1.680   4.232
36718SOL    HW212162  10.962   1.660   4.381
36719SOL     OW12163   9.895   0.712   3.984
36719SOL    HW112164   9.906   0.798   3.943
36719SOL    HW212165   9.828   0.728   4.052
36720SOL     OW12166  10.561   0.373   4.644
36720SOL    HW112167  10.475   0.331   4.660
36720SOL    HW212168  10.619   0.321   4.702
36721SOL     OW12169  10.866   1.643   4.014
36721SOL    HW112170  10.961   1.657   4.015
36721SOL    HW212171  10.848   1.649   3.917
36722SOL     OW12172  10.123   0.612   5.168
36722SOL    HW112173  10.099   0.586   5.260
36722SOL    HW212174  10.070   0.549   5.115
36723SOL     OW12175  10.698   0.513   5.392
36723SOL    HW112176  10.682   0.538   5.485
36723SOL    HW212177  10.740   0.426   5.400
36724SOL     OW12178  10.247   0.908   5.311
36724SOL    HW112179  10.300   0.831   5.283
36724SOL    HW212180  10.203   0.930   5.226
36725SOL     OW12181  10.319   0.386   4.965
36725SOL    HW112182  10.235   0.403   5.010
36725SOL    HW212183  10.291   0.344   4.882
36726SOL     OW12184  10.360   0.704   4.157
36726SOL    HW112185  10.371   0.702   4.254
36726SOL    HW212186  10.274   0.657   4.146
36727SOL     OW12187   9.420   0.833   4.505
36727SOL    HW112188   9.493   0.817   4.568
36727SOL    HW212189   9.390   0.921   4.533
36728SOL     OW12190   9.420   1.845   5.290
36728SOL    HW112191   9.433   1.825   5.385
36728SOL    HW212192   9.325   1.832   5.279
36729SOL     OW12193  10.200   0.351   3.950
36729SOL    HW112194  10.263   0.398   3.892
36729SOL    HW212195  10.163   0.285   3.889
36730SOL     OW12196  11.008   0.627   5.494
36730SOL    HW112197  -0.000   0.652   5.501
36730SOL    HW212198  11.014   0.538   5.453
36731SOL     OW12199  10.671   1.163   4.298
36731SOL    HW112200  10.734   1.139   4.230
36731SOL    HW212201  10.621   1.232   4.252
36732SOL     OW12202   9.852   0.194   4.618
36732SOL    HW112203   9.869   0.206   4.714
36732SOL    HW212204   9.866   0.282   4.581
36733SOL     OW12205  10.324   1.456   4.221
36733SOL    HW112206  10.294   1.523   4.157
36733SOL    HW212207  10.296   1.495   4.305
36734SOL     OW12208   9.656   1.816   4.583
36734SOL    HW112209   9.709   1.735   4.594
36734SOL    HW212210   9.722   1.885   4.604
36735SOL     OW12211  11.100   1.025   4.605
36735SOL    HW112212  11.055   1.065   4.529
36735SOL    HW212213  11.034   1.028   4.677
36736SOL     OW12214  10.529   1.531   5.224
36736SOL    HW112215  10.511   1.455   5.284
36736SOL    HW212216  10.475   1.507   5.147
36737SOL     OW12217   9.625   0.945   3.966
36737SOL    HW112218   9.711   0.962   3.924
36737SOL    HW212219   9.604   0.855   3.934
36738SOL     OW12220  10.778   0.752   4.449
36738SOL    HW112221  10.774   0.711   4.536
36738SOL    HW212222  10.858   0.806   4.452
36739SOL     OW12223   9.778   1.274   5.446
36739SOL    HW112224   9.733   1.274   5.359
36739SOL    HW212225   9.701   1.277   5.505
36740SOL     OW12226  10.431   1.774   3.967
36740SOL    HW112227  10.363   1.716   4.006
36740SOL    HW212228  10.452   1.730   3.882
36741SOL     OW12229   9.480   0.302   5.222
36741SOL    HW112230   9.399   0.347   5.252
36741SOL    HW212231   9.462   0.210   5.252
36742SOL     OW12232   9.765   1.738   4.039
36742SOL    HW112233   9.815   1.783   4.109
36742SOL    HW212234   9.835   1.699   3.985
36743SOL     OW12235  10.738   0.098   4.199
36743SOL    HW112236  10.725   0.082   4.103
36743SOL    HW212237  10.833   0.115   4.207
36744SOL     OW12238   9.541   1.783   4.951
36744SOL    HW112239   9.606   1.722   4.989
36744SOL    HW212240   9.533   1.751   4.861
36745SOL     OW12241  10.284   1.709   4.599
36745SOL    HW112242  10.363   1.656   4.617
36745SOL    HW212243  10.236   1.652   4.535
36746SOL     OW12244   9.679   0.691   4.188
36746SOL    HW112245   9.698   0.596   4.203
36746SOL    HW212246   9.585   0.694   4.210
36747SOL     OW12247  10.834   0.230   5.441
36747SOL    HW112248  10.839   0.244   5.538
36747SOL    HW212249  10.782   0.149   5.440
36748SOL     OW12250   9.946   0.129   3.812
36748SOL    HW112251   9.976   0.046   3.851
36748SOL    HW212252   9.893   0.099   3.736
36749SOL     OW12253  10.066   0.285   5.479
36749SOL    HW112254  10.146   0.230   5.480
36749SOL    HW212255  10.018   0.251   5.556
36750SOL     OW12256  10.194   1.534   4.915
36750SOL    HW112257  10.179   1.505   4.823
36750SOL    HW212258  10.252   1.464   4.950
36751SOL     OW12259  10.611   0.590   5.142
36751SOL    HW112260  10.649   0.560   5.227
36751SOL    HW212261  10.655   0.676   5.129
36752SOL     OW12262  10.130   1.403   4.667
36752SOL    HW112263  10.218   1.393   4.624
36752SOL    HW212264  10.070   1.410   4.591
36753SOL     OW12265  10.237   0.519   4.633
36753SOL    HW112266  10.215   0.498   4.539
36753SOL    HW212267  10.259   0.431   4.666
36754SOL     OW12268   9.844   0.023   4.227
36754SOL    HW112269   9.759   0.021   4.274
36754SOL    HW212270   9.833   0.100   4.169
36755SOL     OW12271  10.751   1.168   3.745
36755SOL    HW112272  10.772   1.095   3.806
36755SOL    HW212273  10.686   1.219   3.795
36756SOL     OW12274   9.608   0.049   3.949
36756SOL    HW112275   9.670   0.124   3.947
36756SOL    HW212276   9.665  11.076   3.971
36757SOL     OW12277  10.257   0.257   4.207
36757SOL    HW112278  10.229   0.292   4.120
36757SOL    HW212279  10.353   0.268   4.201
36758SOL     OW12280  10.376   0.705   5.207
36758SOL    HW112281  10.300   0.645   5.197
36758SOL    HW212282  10.452   0.646   5.189
36759SOL     OW12283  10.549   1.572   4.527
36759SOL    HW112284  10.559   1.633   4.453
36759SOL    HW212285  10.640   1.557   4.555
36760SOL     OW12286   9.775   1.180   4.465
36760SOL    HW112287   9.703   1.146   4.523
36760SOL    HW212288   9.744   1.150   4.377
36761SOL     OW12289  10.590   1.823   4.313
36761SOL    HW112290  10.634   1.889   4.256
36761SOL    HW212291  10.550   1.879   4.380
36762SOL     OW12292  10.335   0.525   3.745
36762SOL    HW112293  10.293   0.610   3.718
36762SOL    HW212294  10.407   0.557   3.802
36763SOL     OW12295   9.362   0.573   5.115
36763SOL    HW112296   9.456   0.551   5.099
36763SOL    HW212297   9.372   0.641   5.185
36764SOL     OW12298   9.864   0.218   4.901
36764SOL    HW112299   9.907   0.166   4.970
36764SOL    HW212300   9.772   0.222   4.932
36765SOL     OW12301  10.180   0.445   4.384
36765SOL    HW112302  10.140   0.501   4.317
36765SOL    HW212303  10.209   0.367   4.333
36766SOL     OW12304  10.316   0.011   4.505
36766SOL    HW112305  10.287   0.036   4.416
36766SOL    HW212306  10.287  11.021   4.510
36767SOL     OW12307  10.742   1.165   4.610
36767SOL    HW112308  10.705   1.079   4.635
36767SOL    HW212309  10.716   1.170   4.516
36768SOL     OW12310  10.766   0.615   4.720
36768SOL    HW112311  10.703   0.541   4.711
36768SOL    HW212312  10.847   0.571   4.748
36769SOL     OW12313   0.024   0.819   4.086
36769SOL    HW112314   0.079   0.773   4.153
36769SOL    HW212315   0.014   0.745   4.021
36770SOL     OW12316   9.811   1.419   3.854
36770SOL    HW112317   9.726   1.409   3.899
36770SOL    HW212318   9.798   1.370   3.772
36771SOL     OW12319  10.713   0.582   3.800
36771SOL    HW112320  10.655   0.566   3.877
36771SOL    HW212321  10.801   0.567   3.837
36772SOL     OW12322   9.813   0.236   4.030
36772SOL    HW112323   9.876   0.208   3.961
36772SOL    HW212324   9.792   0.327   3.999
36773SOL     OW12325  11.042   1.231   5.346
36773SOL    HW112326   0.031   1.202   5.327
36773SOL    HW212327  11.037   1.316   5.301
36774SOL     OW12328  10.380   1.350   5.057
36774SOL    HW112329  10.300   1.319   5.103
36774SOL    HW212330  10.451   1.304   5.108
36775SOL     OW12331  10.934   1.624   5.359
36775SOL    HW112332  10.943   1.672   5.276
36775SOL    HW212333  11.018   1.577   5.366
36776SOL     OW12334  10.463   1.208   4.820
36776SOL    HW112335  10.391   1.237   4.876
36776SOL    HW212336  10.429   1.226   4.731
36777SOL     OW12337  10.927   1.094   4.821
36777SOL    HW112338  10.904   1.153   4.896
36777SOL    HW212339  10.873   1.133   4.751
36778SOL     OW12340  10.203   0.115   5.121
36778SOL    HW112341  10.234   0.084   5.034
36778SOL    HW212342  10.287   0.133   5.165
36779SOL     OW12343  10.312   1.125   5.462
36779SOL    HW112344  10.222   1.151   5.488
36779SOL    HW212345  10.293   1.049   5.402
36780SOL     OW12346  10.016   1.053   4.070
36780SOL    HW112347  10.012   1.040   4.166
36780SOL    HW212348  10.089   0.993   4.044
36781SOL     OW12349   9.723   0.796   4.988
36781SOL    HW112350   9.795   0.792   5.054
36781SOL    HW212351   9.682   0.708   4.997
36782SOL     OW12352  10.594   0.376   4.989
36782SOL    HW112353  10.608   0.458   5.040
36782SOL    HW212354  10.499   0.385   4.967
36783SOL     OW12355   9.387   1.572   5.067
36783SOL    HW112356   9.392   1.664   5.038
36783SOL    HW212357   9.480   1.543   5.060
36784SOL     OW12358   9.675   1.106   4.229
36784SOL    HW112359   9.678   1.170   4.157
36784SOL    HW212360   9.672   1.022   4.181
36785SOL     OW12361   9.832   0.553   4.553
36785SOL    HW112362   9.868   0.616   4.487
36785SOL    HW212363   9.899   0.557   4.623
36786SOL     OW12364  10.552   1.367   4.102
36786SOL    HW112365  10.604   1.440   4.143
36786SOL    HW212366  10.466   1.380   4.146
36787SOL     OW12367  10.618   1.472   4.892
36787SOL    HW112368  10.681   1.462   4.965
36787SOL    HW212369  10.557   1.397   4.906
36788SOL     OW12370  10.888   0.631   4.182
36788SOL    HW112371  10.842   0.678   4.254
36788SOL    HW212372  10.944   0.700   4.145
36789SOL     OW12373   9.647   1.501   5.032
36789SOL    HW112374   9.640   1.469   4.939
36789SOL    HW212375   9.741   1.524   5.035
36790SOL     OW12376   9.742   0.722   5.348
36790SOL    HW112377   9.805   0.770   5.292
36790SOL    HW212378   9.770   0.630   5.336
36791SOL     OW12379  10.303   0.147   5.493
36791SOL    HW112380  10.361   0.219   5.463
36791SOL    HW212381  10.352   0.069   5.460
36792SOL     OW12382   9.801   0.050   5.458
36792SOL    HW112383   9.733  11.096   5.417
36792SOL    HW212384   9.747   0.127   5.487
36793SOL     OW12385   9.881   0.900   4.762
36793SOL    HW112386   9.918   0.989   4.762
36793SOL    HW212387   9.837   0.892   4.848
36794SOL     OW12388  10.687   0.885   4.750
36794SOL    HW112389  10.598   0.854   4.728
36794SOL    HW212390  10.734   0.800   4.753
36795SOL     OW12391  10.520   0.529   3.998
36795SOL    HW112392  10.538   0.454   4.058
36795SOL    HW212393  10.468   0.588   4.055
36796SOL     OW12394   9.603   0.222   4.983
36796SOL    HW112395   9.563   0.258   5.064
36796SOL    HW212396   9.560   0.136   4.976
36797SOL     OW12397   9.346   1.301   5.008
36797SOL    HW112398   9.368   1.243   5.083
36797SOL    HW212399   9.354   1.390   5.045
36798SOL     OW12400  10.006   0.609   4.757
36798SOL    HW112401  10.095   0.593   4.721
36798SOL    HW212402   9.995   0.706   4.751
36799SOL     OW12403   9.601   0.032   4.349
36799SOL    HW112404   9.585   0.128   4.358
36799SOL    HW212405   9.605   0.007   4.443
36800SOL     OW12406  10.962   0.402   4.058
36800SOL    HW112407  10.978   0.330   4.120
36800SOL    HW212408  10.926   0.472   4.115
36801SOL     OW12409  10.361   0.746   4.681
36801SOL    HW112410  10.348   0.755   4.778
36801SOL    HW212411  10.321   0.658   4.665
36802SOL     OW12412  10.290   1.567   5.435
36802SOL    HW112413  10.288   1.619   5.352
36802SOL    HW212414  10.329   1.483   5.404
36803SOL     OW12415   9.674   0.911   5.521
36803SOL    HW112416   9.757   0.926   5.570
36803SOL    HW212417   9.695   0.831   5.469
36804SOL     OW12418  10.836   0.246   3.844
36804SOL    HW112419  10.779   0.187   3.898
36804SOL    HW212420  10.874   0.305   3.911
36805SOL     OW12421  10.594   0.824   3.752
36805SOL    HW112422  10.653   0.748   3.771
36805SOL    HW212423  10.633   0.856   3.668
36806SOL     OW12424  10.371   1.371   4.568
36806SOL    HW112425  10.394   1.294   4.511
36806SOL    HW212426  10.441   1.436   4.549
36807SOL     OW12427   9.600   0.826   4.714
36807SOL    HW112428   9.696   0.845   4.708
36807SOL    HW212429   9.601   0.733   4.740
36808SOL     OW12430   9.638   0.539   4.730
36808SOL    HW112431   9.605   0.449   4.712
36808SOL    HW212432   9.704   0.549   4.657
36809SOL     OW12433  10.447   0.392   5.397
36809SOL    HW112434  10.393   0.432   5.469
36809SOL    HW212435  10.525   0.450   5.399
36810SOL     OW12436  10.470   0.216   5.188
36810SOL    HW112437  10.453   0.289   5.250
36810SOL    HW212438  10.501   0.263   5.110
36811SOL     OW12439   9.308   1.329   3.919
36811SOL    HW112440   9.217   1.348   3.885
36811SOL    HW212441   9.300   1.236   3.947
36812SOL     OW12442   9.408   1.781   4.668
36812SOL    HW112443   9.381   1.714   4.603
36812SOL    HW212444   9.499   1.802   4.637
36813SOL     OW12445   9.796   1.587   4.649
36813SOL    HW112446   9.864   1.655   4.668
36813SOL    HW212447   9.847   1.525   4.594
36814SOL     OW12448  10.303   0.768   4.945
36814SOL    HW112449  10.355   0.752   5.025
36814SOL    HW212450  10.213   0.761   4.979
36815SOL     OW12451   9.335   0.528   4.827
36815SOL    HW112452   9.415   0.512   4.775
36815SOL    HW212453   9.370   0.537   4.917
36816SOL     OW12454   9.520   0.519   5.449
36816SOL    HW112455   9.558   0.458   5.384
36816SOL    HW212456   9.494   0.595   5.395
36817SOL     OW12457  10.712   0.931   5.395
36817SOL    HW112458  10.719   1.026   5.418
36817SOL    HW212459  10.672   0.936   5.307
36818SOL     OW12460  10.124   0.588   4.102
36818SOL    HW112461  10.136   0.510   4.047
36818SOL    HW212462  10.042   0.627   4.065
36819SOL     OW12463   9.560   1.539   5.446
36819SOL    HW112464   9.550   1.610   5.511
36819SOL    HW212465   9.563   1.459   5.501
36820SOL     OW12466   9.984   0.467   4.987
36820SOL    HW112467   9.942   0.385   4.958
36820SOL    HW212468   9.981   0.522   4.907
36821SOL     OW12469  10.246   1.696   5.206
36821SOL    HW112470  10.220   1.659   5.120
36821SOL    HW212471  10.236   1.792   5.192
36822SOL     OW12472   9.755   0.476   3.921
36822SOL    HW112473   9.817   0.550   3.929
36822SOL    HW212474   9.670   0.524   3.917
36823SOL     OW12475   9.422   1.129   5.197
36823SOL    HW112476   9.431   1.073   5.278
36823SOL    HW212477   9.454   1.068   5.127
36824SOL     OW12478  10.628   1.045   4.960
36824SOL    HW112479  10.658   0.992   4.884
36824SOL    HW212480  10.572   1.111   4.914
36825SOL     OW12481  10.618   0.843   4.024
36825SOL    HW112482  10.537   0.819   4.072
36825SOL    HW212483  10.589   0.851   3.932
36826SOL     OW12484  11.039   1.756   4.863
36826SOL    HW112485   0.009   1.770   4.797
36826SOL    HW212486  11.019   1.660   4.850
36827SOL     OW12487  10.561   1.732   4.836
36827SOL    HW112488  10.642   1.757   4.788
36827SOL    HW212489  10.574   1.636   4.850
36828SOL     OW12490   9.410   1.253   4.755
36828SOL    HW112491   9.381   1.267   4.848
36828SOL    HW212492   9.330   1.218   4.714
36829SOL     OW12493  10.009   1.638   5.464
36829SOL    HW112494   9.971   1.724   5.443
36829SOL    HW212495  10.101   1.645   5.434
36830SOL     OW12496  11.017   0.140   4.230
36830SOL    HW112497  11.085   0.135   4.159
36830SOL    HW212498  11.044   0.072   4.292
36831SOL     OW12499  10.688   1.582   4.215
36831SOL    HW112500  10.748   1.606   4.142
36831SOL    HW212501  10.648   1.668   4.239
36832SOL     OW12502   9.465   1.791   5.550
36832SOL    HW112503   9.421   1.720   5.602
36832SOL    HW212504   9.509   1.840   5.622
36833SOL     OW12505  10.569   0.930   4.406
36833SOL    HW112506  10.645   0.870   4.414
36833SOL    HW212507  10.606   0.999   4.347
36834SOL     OW12508  10.099   1.243   5.145
36834SOL    HW112509  10.079   1.291   5.228
36834SOL    HW212510  10.023   1.267   5.090
36835SOL     OW12511   9.995   1.613   3.881
36835SOL    HW112512  10.006   1.625   3.785
36835SOL    HW212513   9.936   1.534   3.882
36836SOL     OW12514   9.558   0.294   4.428
36836SOL    HW112515   9.473   0.339   4.408
36836SOL    HW212516   9.562   0.303   4.525
36837SOL     OW12517  10.504   1.635   3.748
36837SOL    HW112518  10.514   1.542   3.773
36837SOL    HW212519  10.437   1.632   3.678
36838SOL     OW12520  10.136   0.991   5.086
36838SOL    HW112521  10.149   1.001   4.991
36838SOL    HW212522  10.130   1.085   5.115
36839SOL     OW12523  10.205   0.893   3.982
36839SOL    HW112524  10.281   0.926   3.930
36839SOL    HW212525  10.246   0.822   4.034
36840SOL     OW12526  10.813   1.669   3.755
36840SOL    HW112527  10.722   1.638   3.743
36840SOL    HW212528  10.854   1.650   3.668
36841SOL     OW12529   9.655   1.279   5.214
36841SOL    HW112530   9.647   1.347   5.145
36841SOL    HW212531   9.573   1.227   5.203
36842SOL     OW12532  10.877   1.288   5.003
36842SOL    HW112533  10.969   1.293   5.034
36842SOL    HW212534  10.833   1.360   5.053
36843SOL     OW12535  10.380   1.117   4.464
36843SOL    HW112536  10.302   1.068   4.493
36843SOL    HW212537  10.444   1.046   4.444
36844SOL     OW12538  10.325   0.242   4.704
36844SOL    HW112539  10.309   0.188   4.625
36844SOL    HW212540  10.334   0.172   4.771
36845SOL     OW12541   9.933   1.490   4.220
36845SOL    HW112542   9.983   1.445   4.149
36845SOL    HW212543   9.850   1.514   4.177
36846SOL     OW12544   9.558   1.381   3.995
36846SOL    HW112545   9.462   1.365   3.988
36846SOL    HW212546   9.567   1.404   4.091
36847SOL     OW12547   9.440   0.991   5.422
36847SOL    HW112548   9.368   0.990   5.488
36847SOL    HW212549   9.519   0.971   5.476
36848SOL     OW12550   9.960   0.223   5.211
36848SOL    HW112551  10.040   0.181   5.174
36848SOL    HW212552   9.991   0.246   5.300
36849SOL     OW12553   9.378   0.352   3.752
36849SOL    HW112554   9.288   0.362   3.719
36849SOL    HW212555   9.421   0.426   3.706
36850SOL     OW12556  10.729   0.838   5.122
36850SOL    HW112557  10.674   0.902   5.072
36850SOL    HW212558  10.817   0.859   5.088
36851SOL     OW12559   9.331   0.162   4.024
36851SOL    HW112560   9.332   0.235   3.961
36851SOL    HW212561   9.423   0.132   4.024
36852SOL     OW12562  10.520   1.370   3.832
36852SOL    HW112563  10.435   1.324   3.828
36852SOL    HW212564  10.538   1.369   3.928
36853SOL     OW12565   9.926   0.801   5.161
36853SOL    HW112566   9.981   0.881   5.152
36853SOL    HW212567   9.995   0.732   5.165
36854SOL     OW12568  10.794   1.808   4.689
36854SOL    HW112569  10.828   1.805   4.598
36854SOL    HW212570  10.873   1.785   4.739
36855SOL     OW12571  10.052   0.563   5.413
36855SOL    HW112572  10.087   0.628   5.476
36855SOL    HW212573  10.048   0.480   5.463
36856SOL     OW12574  10.778   1.200   5.355
36856SOL    HW112575  10.757   1.204   5.451
36856SOL    HW212576  10.874   1.213   5.358
36857SOL     OW12577   9.676   1.729   5.285
36857SOL    HW112578   9.591   1.775   5.271
36857SOL    HW212579   9.646   1.645   5.325
36858SOL     OW12580  10.992   0.863   4.952
36858SOL    HW112581  11.001   0.798   4.880
36858SOL    HW212582  10.964   0.944   4.903
36859SOL     OW12583  10.548   0.305   4.184
36859SOL    HW112584  10.607   0.227   4.185
36859SOL    HW212585  10.583   0.355   4.261
36860SOL     OW12586   9.900   0.747   4.372
36860SOL    HW112587   9.934   0.836   4.360
36860SOL    HW212588   9.822   0.745   4.314
36861SOL     OW12589  11.054   0.391   5.369
36861SOL    HW112590  11.053   0.410   5.274
36861SOL    HW212591  10.992   0.317   5.380
36862SOL     OW12592  10.994   0.896   5.223
36862SOL    HW112593  11.011   0.990   5.237
36862SOL    HW212594  11.019   0.884   5.129
36863SOL     OW12595  10.170   1.368   3.754
36863SOL    HW112596  10.153   1.384   3.848
36863SOL    HW212597  10.198   1.455   3.720
36864SOL     OW12598   9.965   1.805   4.640
36864SOL    HW112599   9.952   1.900   4.624
36864SOL    HW212600  10.061   1.794   4.635
36865SOL     OW12601  10.188   0.950   4.568
36865SOL    HW112602  10.241   0.879   4.609
36865SOL    HW212603  10.157   1.001   4.644
36866SOL     OW12604  10.402   0.991   3.823
36866SOL    HW112605  10.383   1.048   3.747
36866SOL    HW212606  10.469   0.930   3.786
36867SOL     OW12607   0.054   1.545   4.578
36867SOL    HW112608   0.077   1.533   4.485
36867SOL    HW212609   0.062   1.456   4.614
36868SOL     OW12610   9.557   1.316   5.595
36868SOL    HW112611   9.474   1.272   5.573
36868SOL    HW212612   9.548   1.324   5.692
36869SOL     OW12613   9.397   1.249   4.379
36869SOL    HW112614   9.423   1.200   4.458
36869SOL    HW212615   9.464   1.222   4.315
36870SOL     OW12616   9.990   1.395   5.342
36870SOL    HW112617   9.910   1.348   5.372
36870SOL    HW212618   9.979   1.482   5.384
36871SOL     OW12619   0.009   0.168   4.952
36871SOL    HW112620  11.074   0.080   4.972
36871SOL    HW212621   0.026   0.162   4.857
36872SOL     OW12622   9.716   0.423   4.243
36872SOL    HW112623   9.748   0.347   4.192
36872SOL    HW212624   9.686   0.381   4.326
36873SOL     OW12625  10.970   1.507   4.836
36873SOL    HW112626  10.908   1.484   4.766
36873SOL    HW212627  10.993   1.422   4.874
36874SOL     OW12628   9.629   0.543   5.014
36874SOL    HW112629   9.692   0.494   5.071
36874SOL    HW212630   9.660   0.524   4.923
36875SOL     OW12631  10.137   1.589   4.399
36875SOL    HW112632  10.123   1.614   4.306
36875SOL    HW212633  10.054   1.542   4.417
36876SOL     OW12634  10.737   0.246   4.806
36876SOL    HW112635  10.745   0.154   4.834
36876SOL    HW212636  10.693   0.289   4.883
36877SOL     OW12637  10.310   0.004   4.880
36877SOL    HW112638  10.264  11.020   4.874
36877SOL    HW212639  10.402  11.079   4.860
36878SOL     OW12640  10.103   1.340   4.039
36878SOL    HW112641  10.062   1.252   4.033
36878SOL    HW212642  10.173   1.325   4.104
36879SOL     OW12643   9.908   1.559   4.995
36879SOL    HW112644   9.906   1.644   5.044
36879SOL    HW212645  10.000   1.560   4.965
36880SOL     OW12646  10.673   0.055   3.946
36880SOL    HW112647  10.683   0.001   3.866
36880SOL    HW212648  10.576   0.048   3.961
36881SOL     OW12649  10.636   0.446   4.396
36881SOL    HW112650  10.585   0.527   4.388
36881SOL    HW212651  10.610   0.416   4.486
36882SOL     OW12652  10.914   0.240   4.576
36882SOL    HW112653  10.859   0.229   4.655
36882SOL    HW212654  10.860   0.300   4.524
36883SOL     OW12655   9.352   1.071   4.042
36883SOL    HW112656   9.443   1.065   4.009
36883SOL    HW212657   9.332   0.978   4.058
36884SOL     OW12658  10.197   1.652   4.070
36884SOL    HW112659  10.123   1.636   4.009
36884SOL    HW212660  10.173   1.736   4.114
36885SOL     OW12661   9.536   0.627   5.721
36885SOL    HW112662   9.443   0.617   5.744
36885SOL    HW212663   9.538   0.612   5.625
36886SOL     OW12664   9.516   0.299   6.578
36886SOL    HW112665   9.549   0.282   6.668
36886SOL    HW212666   9.451   0.228   6.567
36887SOL     OW12667   9.319   0.406   6.234
36887SOL    HW112668   9.238   0.436   6.278
36887SOL    HW212669   9.286   0.335   6.178
36888SOL     OW12670   9.880   1.290   6.786
36888SOL    HW112671   9.793   1.290   6.743
36888SOL    HW212672   9.887   1.382   6.819
36889SOL     OW12673  10.879   1.524   6.304
36889SOL    HW112674  10.842   1.491   6.388
36889SOL    HW212675  10.816   1.491   6.237
36890SOL     OW12676  10.448   0.693   6.296
36890SOL    HW112677  10.481   0.784   6.280
36890SOL    HW212678  10.416   0.701   6.387
36891SOL     OW12679  11.095   0.603   5.800
36891SOL    HW112680  11.033   0.613   5.728
36891SOL    HW212681  11.047   0.541   5.859
36892SOL     OW12682  10.047   1.163   6.615
36892SOL    HW112683   9.990   1.205   6.682
36892SOL    HW212684  10.082   1.242   6.570
36893SOL     OW12685  10.198   0.759   7.391
36893SOL    HW112686  10.165   0.811   7.465
36893SOL    HW212687  10.206   0.826   7.320
36894SOL     OW12688  10.007   1.038   6.242
36894SOL    HW112689  10.066   1.008   6.313
36894SOL    HW212690   9.934   1.080   6.292
36895SOL     OW12691  10.024   1.169   7.389
36895SOL    HW112692  10.069   1.249   7.422
36895SOL    HW212693   9.938   1.204   7.359
36896SOL     OW12694   9.635   1.422   6.651
36896SOL    HW112695   9.562   1.381   6.602
36896SOL    HW212696   9.685   1.471   6.584
36897SOL     OW12697  10.764   1.501   6.970
36897SOL    HW112698  10.791   1.591   6.990
36897SOL    HW212699  10.691   1.490   7.034
36898SOL     OW12700   9.751   0.411   7.079
36898SOL    HW112701   9.826   0.349   7.073
36898SOL    HW212702   9.674   0.351   7.083
36899SOL     OW12703   9.533   1.720   6.058
36899SOL    HW112704   9.561   1.795   6.113
36899SOL    HW212705   9.598   1.722   5.987
36900SOL     OW12706  10.445   1.352   7.255
36900SOL    HW112707  10.500   1.340   7.334
36900SOL    HW212708  10.393   1.270   7.259
36901SOL     OW12709   9.565   1.439   6.118
36901SOL    HW112710   9.555   1.535   6.122
36901SOL    HW212711   9.496   1.407   6.178
36902SOL     OW12712   9.583   1.104   6.494
36902SOL    HW112713   9.584   1.022   6.544
36902SOL    HW212714   9.521   1.159   6.546
36903SOL     OW12715   9.896   1.812   6.985
36903SOL    HW112716   9.840   1.768   7.052
36903SOL    HW212717   9.937   1.884   7.036
36904SOL     OW12718   9.890   0.990   5.697
36904SOL    HW112719   9.942   1.041   5.633
36904SOL    HW212720   9.931   1.017   5.781
36905SOL     OW12721  10.930   0.092   7.072
36905SOL    HW112722  10.942   0.152   6.997
36905SOL    HW212723  10.904   0.151   7.144
36906SOL     OW12724   9.425   0.667   6.152
36906SOL    HW112725   9.400   0.578   6.182
36906SOL    HW212726   9.423   0.718   6.235
36907SOL     OW12727   9.371   1.595   5.708
36907SOL    HW112728   9.357   1.501   5.727
36907SOL    HW212729   9.338   1.638   5.788
36908SOL     OW12730  10.988   0.936   6.159
36908SOL    HW112731  11.057   0.894   6.212
36908SOL    HW212732  11.038   0.998   6.104
36909SOL     OW12733   9.445   0.745   7.167
36909SOL    HW112734   9.540   0.764   7.168
36909SOL    HW212735   9.411   0.827   7.207
36910SOL     OW12736   9.899   1.405   6.345
36910SOL    HW112737   9.862   1.314   6.355
36910SOL    HW212738   9.891   1.418   6.249
36911SOL     OW12739  10.604   1.235   7.019
36911SOL    HW112740  10.620   1.149   6.975
36911SOL    HW212741  10.665   1.231   7.096
36912SOL     OW12742  10.143   0.000   6.114
36912SOL    HW112743  10.175   0.089   6.088
36912SOL    HW212744  10.048   0.006   6.096
36913SOL     OW12745   9.499   0.961   6.842
36913SOL    HW112746   9.586   0.925   6.819
36913SOL    HW212747   9.437   0.899   6.801
36914SOL     OW12748  10.836   0.947   5.770
36914SOL    HW112749  10.767   0.897   5.818
36914SOL    HW212750  10.897   0.970   5.841
36915SOL     OW12751  10.500   1.798   7.192
36915SOL    HW112752  10.524   1.853   7.117
36915SOL    HW212753  10.508   1.708   7.154
36916SOL     OW12754   9.627   0.254   7.408
36916SOL    HW112755   9.665   0.335   7.443
36916SOL    HW212756   9.532   0.264   7.428
36917SOL     OW12757  10.748   1.431   6.533
36917SOL    HW112758  10.691   1.448   6.611
36917SOL    HW212759  10.733   1.336   6.517
36918SOL     OW12760  10.994   1.709   6.146
36918SOL    HW112761  10.955   1.651   6.081
36918SOL    HW212762  10.975   1.660   6.228
36919SOL     OW12763   9.902   0.711   5.848
36919SOL    HW112764   9.905   0.799   5.806
36919SOL    HW212765   9.829   0.721   5.911
36920SOL     OW12766  10.568   0.370   6.505
36920SOL    HW112767  10.483   0.327   6.525
36920SOL    HW212768  10.628   0.321   6.565
36921SOL     OW12769  10.857   1.640   5.874
36921SOL    HW112770  10.921   1.711   5.880
36921SOL    HW212771  10.851   1.625   5.777
36922SOL     OW12772  10.120   0.607   7.030
36922SOL    HW112773  10.092   0.583   7.122
36922SOL    HW212774  10.064   0.547   6.977
36923SOL     OW12775  10.688   0.490   7.253
36923SOL    HW112776  10.682   0.538   7.337
36923SOL    HW212777  10.757   0.425   7.272
36924SOL     OW12778  10.244   0.913   7.178
36924SOL    HW112779  10.302   0.841   7.146
36924SOL    HW212780  10.200   0.936   7.095
36925SOL     OW12781  10.320   0.384   6.825
36925SOL    HW112782  10.249   0.428   6.873
36925SOL    HW212783  10.276   0.349   6.747
36926SOL     OW12784  10.359   0.700   6.019
36926SOL    HW112785  10.367   0.702   6.116
36926SOL    HW212786  10.273   0.654   6.008
36927SOL     OW12787   9.426   0.830   6.364
36927SOL    HW112788   9.494   0.829   6.433
36927SOL    HW212789   9.377   0.912   6.384
36928SOL     OW12790   9.413   1.852   7.147
36928SOL    HW112791   9.428   1.826   7.240
36928SOL    HW212792   9.322   1.821   7.133
36929SOL     OW12793  10.199   0.346   5.813
36929SOL    HW112794  10.262   0.392   5.756
36929SOL    HW212795  10.163   0.279   5.754
36930SOL     OW12796  11.023   0.571   7.410
36930SOL    HW112797  10.981   0.646   7.362
36930SOL    HW212798  11.056   0.518   7.335
36931SOL     OW12799  10.676   1.160   6.154
36931SOL    HW112800  10.735   1.155   6.078
36931SOL    HW212801  10.615   1.230   6.127
36932SOL     OW12802   9.848   0.197   6.473
36932SOL    HW112803   9.867   0.209   6.567
36932SOL    HW212804   9.860   0.286   6.436
36933SOL     OW12805  10.317   1.454   6.080
36933SOL    HW112806  10.288   1.522   6.017
36933SOL    HW212807  10.301   1.498   6.165
36934SOL     OW12808   9.653   1.810   6.445
36934SOL    HW112809   9.700   1.725   6.455
36934SOL    HW212810   9.724   1.873   6.461
36935SOL     OW12811  11.088   1.033   6.465
36935SOL    HW112812  11.020   1.071   6.407
36935SOL    HW212813  11.047   1.036   6.553
36936SOL     OW12814  10.524   1.551   7.087
36936SOL    HW112815  10.509   1.488   7.160
36936SOL    HW212816  10.478   1.506   7.015
36937SOL     OW12817   9.612   0.957   5.832
36937SOL    HW112818   9.694   0.979   5.786
36937SOL    HW212819   9.592   0.868   5.798
36938SOL     OW12820  10.788   0.743   6.298
36938SOL    HW112821  10.772   0.699   6.384
36938SOL    HW212822  10.858   0.805   6.317
36939SOL     OW12823   9.784   1.265   7.306
36939SOL    HW112824   9.726   1.273   7.227
36939SOL    HW212825   9.721   1.276   7.379
36940SOL     OW12826  10.429   1.773   5.827
36940SOL    HW112827  10.361   1.719   5.870
36940SOL    HW212828  10.445   1.726   5.743
36941SOL     OW12829   9.482   0.302   7.081
36941SOL    HW112830   9.406   0.351   7.116
36941SOL    HW212831   9.460   0.211   7.110
36942SOL     OW12832   9.766   1.743   5.902
36942SOL    HW112833   9.816   1.786   5.974
36942SOL    HW212834   9.837   1.712   5.843
36943SOL     OW12835  10.733   0.105   6.051
36943SOL    HW112836  10.722   0.086   5.955
36943SOL    HW212837  10.829   0.113   6.062
36944SOL     OW12838   9.562   1.796   6.824
36944SOL    HW112839   9.617   1.735   6.876
36944SOL    HW212840   9.554   1.750   6.740
36945SOL     OW12841  10.275   1.711   6.469
36945SOL    HW112842  10.355   1.658   6.487
36945SOL    HW212843  10.229   1.656   6.403
36946SOL     OW12844   9.673   0.690   6.035
36946SOL    HW112845   9.690   0.596   6.055
36946SOL    HW212846   9.582   0.700   6.067
36947SOL     OW12847  10.844   0.237   7.304
36947SOL    HW112848  10.848   0.243   7.402
36947SOL    HW212849  10.777   0.169   7.295
36948SOL     OW12850   9.945   0.125   5.675
36948SOL    HW112851   9.972   0.041   5.715
36948SOL    HW212852   9.896   0.095   5.596
36949SOL     OW12853  10.068   0.283   7.331
36949SOL    HW112854  10.151   0.232   7.332
36949SOL    HW212855  10.026   0.251   7.412
36950SOL     OW12856  10.201   1.552   6.770
36950SOL    HW112857  10.183   1.521   6.680
36950SOL    HW212858  10.237   1.473   6.813
36951SOL     OW12859  10.605   0.595   7.010
36951SOL    HW112860  10.645   0.558   7.091
36951SOL    HW212861  10.663   0.671   6.994
36952SOL     OW12862  10.122   1.404   6.514
36952SOL    HW112863  10.207   1.392   6.467
36952SOL    HW212864  10.058   1.406   6.441
36953SOL     OW12865  10.240   0.518   6.488
36953SOL    HW112866  10.219   0.494   6.395
36953SOL    HW212867  10.269   0.432   6.522
36954SOL     OW12868   9.844   0.020   6.090
36954SOL    HW112869   9.758   0.019   6.136
36954SOL    HW212870   9.833   0.097   6.031
36955SOL     OW12871  10.746   1.155   5.611
36955SOL    HW112872  10.767   1.082   5.672
36955SOL    HW212873  10.676   1.202   5.657
36956SOL     OW12874   9.608   0.046   5.804
36956SOL    HW112875   9.668   0.122   5.800
36956SOL    HW212876   9.667  11.076   5.831
36957SOL     OW12877  10.261   0.255   6.067
36957SOL    HW112878  10.235   0.291   5.981
36957SOL    HW212879  10.357   0.265   6.064
36958SOL     OW12880  10.369   0.715   7.054
36958SOL    HW112881  10.301   0.646   7.056
36958SOL    HW212882  10.452   0.664   7.050
36959SOL     OW12883  10.540   1.579   6.392
36959SOL    HW112884  10.560   1.644   6.322
36959SOL    HW212885  10.628   1.564   6.432
36960SOL     OW12886   9.786   1.164   6.326
36960SOL    HW112887   9.714   1.135   6.386
36960SOL    HW212888   9.747   1.142   6.238
36961SOL     OW12889  10.571   1.820   6.180
36961SOL    HW112890  10.624   1.885   6.129
36961SOL    HW212891  10.541   1.873   6.255
36962SOL     OW12892  10.340   0.539   5.603
36962SOL    HW112893  10.294   0.622   5.577
36962SOL    HW212894  10.404   0.570   5.668
36963SOL     OW12895   9.370   0.573   6.976
36963SOL    HW112896   9.463   0.554   6.956
36963SOL    HW212897   9.380   0.643   7.045
36964SOL     OW12898   9.866   0.221   6.757
36964SOL    HW112899   9.909   0.166   6.824
36964SOL    HW212900   9.774   0.224   6.788
36965SOL     OW12901  10.179   0.439   6.244
36965SOL    HW112902  10.139   0.495   6.177
36965SOL    HW212903  10.208   0.360   6.192
36966SOL     OW12904  10.305   0.018   6.361
36966SOL    HW112905  10.270   0.035   6.272
36966SOL    HW212906  10.284  11.026   6.374
36967SOL     OW12907  10.737   1.168   6.473
36967SOL    HW112908  10.709   1.079   6.500
36967SOL    HW212909  10.716   1.167   6.378
36968SOL     OW12910  10.767   0.622   6.568
36968SOL    HW112911  10.705   0.548   6.575
36968SOL    HW212912  10.849   0.583   6.603
36969SOL     OW12913   0.030   0.822   5.942
36969SOL    HW112914   0.067   0.786   6.024
36969SOL    HW212915   0.022   0.740   5.888
36970SOL     OW12916   9.809   1.418   5.718
36970SOL    HW112917   9.724   1.411   5.764
36970SOL    HW212918   9.795   1.363   5.640
36971SOL     OW12919  10.710   0.588   5.657
36971SOL    HW112920  10.655   0.571   5.736
36971SOL    HW212921  10.793   0.550   5.684
36972SOL     OW12922   9.814   0.239   5.892
36972SOL    HW112923   9.874   0.208   5.822
36972SOL    HW212924   9.791   0.329   5.859
36973SOL     OW12925  11.037   1.232   7.121
36973SOL    HW112926   0.026   1.207   7.147
36973SOL    HW212927  11.025   1.317   7.164
36974SOL     OW12928  10.370   1.336   6.922
36974SOL    HW112929  10.291   1.304   6.968
36974SOL    HW212930  10.442   1.297   6.977
36975SOL     OW12931  10.938   1.631   7.232
36975SOL    HW112932  10.948   1.676   7.148
36975SOL    HW212933  11.014   1.573   7.234
36976SOL     OW12934  10.430   1.223   6.673
36976SOL    HW112935  10.377   1.254   6.748
36976SOL    HW212936  10.393   1.270   6.597
36977SOL     OW12937  10.942   1.110   6.692
36977SOL    HW112938  10.923   1.168   6.769
36977SOL    HW212939  10.877   1.144   6.630
36978SOL     OW12940  10.202   0.114   6.978
36978SOL    HW112941  10.234   0.084   6.891
36978SOL    HW212942  10.286   0.136   7.021
36979SOL     OW12943  10.309   1.130   7.325
36979SOL    HW112944  10.219   1.153   7.353
36979SOL    HW212945  10.294   1.050   7.270
36980SOL     OW12946  10.019   1.058   5.943
36980SOL    HW112947  10.015   1.044   6.039
36980SOL    HW212948  10.095   1.001   5.918
36981SOL     OW12949   9.733   0.797   6.844
36981SOL    HW112950   9.803   0.794   6.913
36981SOL    HW212951   9.684   0.714   6.861
36982SOL     OW12952  10.597   0.375   6.850
36982SOL    HW112953  10.606   0.457   6.903
36982SOL    HW212954  10.501   0.378   6.830
36983SOL     OW12955   9.391   1.573   6.933
36983SOL    HW112956   9.394   1.665   6.904
36983SOL    HW212957   9.485   1.545   6.924
36984SOL     OW12958   9.680   1.108   6.089
36984SOL    HW112959   9.705   1.171   6.020
36984SOL    HW212960   9.652   1.031   6.038
36985SOL     OW12961   9.831   0.551   6.414
36985SOL    HW112962   9.863   0.618   6.349
36985SOL    HW212963   9.899   0.556   6.483
36986SOL     OW12964  10.551   1.376   5.968
36986SOL    HW112965  10.601   1.446   6.013
36986SOL    HW212966  10.463   1.386   6.009
36987SOL     OW12967  10.606   1.469   6.758
36987SOL    HW112968  10.673   1.471   6.829
36987SOL    HW212969  10.548   1.396   6.785
36988SOL     OW12970  10.896   0.640   6.051
36988SOL    HW112971  10.829   0.652   6.120
36988SOL    HW212972  10.940   0.726   6.052
36989SOL     OW12973   9.650   1.502   6.896
36989SOL    HW112974   9.645   1.469   6.804
36989SOL    HW212975   9.743   1.530   6.900
36990SOL     OW12976   9.737   0.717   7.209
36990SOL    HW112977   9.800   0.769   7.154
36990SOL    HW212978   9.771   0.627   7.196
36991SOL     OW12979  10.923   0.761   7.253
36991SOL    HW112980  10.836   0.806   7.255
36991SOL    HW212981  10.972   0.822   7.195
36992SOL     OW12982  10.302   0.150   7.351
36992SOL    HW112983  10.354   0.228   7.326
36992SOL    HW212984  10.358   0.078   7.317
36993SOL     OW12985   9.807   0.062   7.332
36993SOL    HW112986   9.747   0.005   7.282
36993SOL    HW212987   9.747   0.134   7.359
36994SOL     OW12988   9.879   0.901   6.619
36994SOL    HW112989   9.924   0.986   6.629
36994SOL    HW212990   9.844   0.884   6.708
36995SOL     OW12991  10.693   0.904   6.597
36995SOL    HW112992  10.609   0.859   6.583
36995SOL    HW212993  10.747   0.828   6.623
36996SOL     OW12994  10.523   0.530   5.858
36996SOL    HW112995  10.540   0.453   5.916
36996SOL    HW212996  10.467   0.586   5.915
36997SOL     OW12997   9.609   0.219   6.843
36997SOL    HW112998   9.566   0.256   6.922
36997SOL    HW212999   9.567   0.132   6.837
36998SOL     OW13000   9.344   1.303   6.877
36998SOL    HW113001   9.374   1.240   6.946
36998SOL    HW213002   9.349   1.389   6.920
36999SOL     OW13003  10.009   0.613   6.612
36999SOL    HW113004  10.099   0.597   6.576
36999SOL    HW213005   9.997   0.708   6.603
37000SOL     OW13006   9.595   0.032   6.205
37000SOL    HW113007   9.579   0.127   6.216
37000SOL    HW213008   9.603   0.006   6.299
37001SOL     OW13009  10.962   0.396   5.919
37001SOL    HW113010  10.985   0.321   5.976
37001SOL    HW213011  10.920   0.457   5.982
37002SOL     OW13012  10.359   0.746   6.546
37002SOL    HW113013  10.345   0.760   6.643
37002SOL    HW213014  10.318   0.659   6.533
37003SOL     OW13015  10.288   1.567   7.296
37003SOL    HW113016  10.284   1.619   7.213
37003SOL    HW213017  10.312   1.479   7.264
37004SOL     OW13018   9.682   0.918   7.380
37004SOL    HW113019   9.760   0.932   7.436
37004SOL    HW213020   9.708   0.839   7.329
37005SOL     OW13021  10.832   0.252   5.702
37005SOL    HW113022  10.772   0.187   5.745
37005SOL    HW213023  10.865   0.302   5.778
37006SOL     OW13024  10.577   0.821   5.607
37006SOL    HW113025  10.638   0.749   5.631
37006SOL    HW213026  10.621   0.861   5.531
37007SOL     OW13027  10.376   1.368   6.434
37007SOL    HW113028  10.403   1.292   6.380
37007SOL    HW213029  10.447   1.434   6.418
37008SOL     OW13030   9.603   0.827   6.578
37008SOL    HW113031   9.697   0.848   6.570
37008SOL    HW213032   9.605   0.734   6.603
37009SOL     OW13033   9.639   0.541   6.592
37009SOL    HW113034   9.600   0.454   6.570
37009SOL    HW213035   9.705   0.549   6.519
37010SOL     OW13036  10.439   0.392   7.249
37010SOL    HW113037  10.400   0.440   7.324
37010SOL    HW213038  10.528   0.431   7.245
37011SOL     OW13039  10.468   0.210   7.049
37011SOL    HW113040  10.449   0.284   7.111
37011SOL    HW213041  10.508   0.259   6.975
37012SOL     OW13042   9.313   1.324   5.779
37012SOL    HW113043   9.221   1.340   5.749
37012SOL    HW213044   9.308   1.231   5.810
37013SOL     OW13045   9.402   1.779   6.530
37013SOL    HW113046   9.373   1.705   6.473
37013SOL    HW213047   9.493   1.794   6.496
37014SOL     OW13048   9.798   1.585   6.513
37014SOL    HW113049   9.869   1.648   6.535
37014SOL    HW213050   9.845   1.521   6.457
37015SOL     OW13051  10.296   0.769   6.802
37015SOL    HW113052  10.343   0.749   6.886
37015SOL    HW213053  10.207   0.787   6.836
37016SOL     OW13054   9.341   0.534   6.692
37016SOL    HW113055   9.419   0.508   6.642
37016SOL    HW213056   9.375   0.542   6.782
37017SOL     OW13057   9.516   0.521   7.310
37017SOL    HW113058   9.570   0.471   7.247
37017SOL    HW213059   9.485   0.596   7.258
37018SOL     OW13060  10.125   0.585   5.962
37018SOL    HW113061  10.133   0.504   5.909
37018SOL    HW213062  10.047   0.629   5.923
37019SOL     OW13063   9.554   1.540   7.314
37019SOL    HW113064   9.543   1.604   7.385
37019SOL    HW213065   9.559   1.455   7.363
37020SOL     OW13066   9.990   0.469   6.844
37020SOL    HW113067   9.947   0.387   6.816
37020SOL    HW213068   9.984   0.525   6.764
37021SOL     OW13069  10.245   1.696   7.062
37021SOL    HW113070  10.231   1.663   6.972
37021SOL    HW213071  10.253   1.792   7.050
37022SOL     OW13072   9.756   0.474   5.779
37022SOL    HW113073   9.819   0.547   5.789
37022SOL    HW213074   9.671   0.524   5.779
37023SOL     OW13075   9.428   1.118   7.055
37023SOL    HW113076   9.444   1.067   7.138
37023SOL    HW213077   9.453   1.052   6.986
37024SOL     OW13078  10.604   1.058   6.796
37024SOL    HW113079  10.638   1.010   6.719
37024SOL    HW213080  10.541   1.121   6.756
37025SOL     OW13081  10.620   0.836   5.881
37025SOL    HW113082  10.545   0.820   5.939
37025SOL    HW213083  10.578   0.852   5.794
37026SOL     OW13084  11.034   1.751   6.711
37026SOL    HW113085   0.011   1.765   6.654
37026SOL    HW213086  11.024   1.653   6.706
37027SOL     OW13087  10.562   1.728   6.701
37027SOL    HW113088  10.649   1.742   6.659
37027SOL    HW213089  10.566   1.633   6.722
37028SOL     OW13090   9.405   1.249   6.622
37028SOL    HW113091   9.381   1.267   6.716
37028SOL    HW213092   9.322   1.216   6.587
37029SOL     OW13093   9.991   1.683   7.255
37029SOL    HW113094   9.993   1.690   7.352
37029SOL    HW213095  10.085   1.685   7.234
37030SOL     OW13096  11.009   0.134   6.087
37030SOL    HW113097  11.082   0.127   6.021
37030SOL    HW213098  11.038   0.075   6.158
37031SOL     OW13099  10.688   1.585   6.085
37031SOL    HW113100  10.740   1.607   6.006
37031SOL    HW213101  10.642   1.668   6.106
37032SOL     OW13102   9.473   1.800   7.409
37032SOL    HW113103   9.423   1.730   7.456
37032SOL    HW213104   9.512   1.847   7.485
37033SOL     OW13105  10.572   0.924   6.258
37033SOL    HW113106  10.648   0.865   6.271
37033SOL    HW213107  10.611   0.996   6.205
37034SOL     OW13108  10.100   1.252   7.008
37034SOL    HW113109  10.076   1.304   7.088
37034SOL    HW213110  10.022   1.267   6.953
37035SOL     OW13111   9.990   1.617   5.744
37035SOL    HW113112  10.002   1.626   5.648
37035SOL    HW213113   9.932   1.537   5.747
37036SOL     OW13114   9.562   0.298   6.284
37036SOL    HW113115   9.479   0.345   6.264
37036SOL    HW213116   9.565   0.306   6.381
37037SOL     OW13117  10.511   1.637   5.610
37037SOL    HW113118  10.514   1.542   5.629
37037SOL    HW213119  10.450   1.642   5.534
37038SOL     OW13120  10.129   0.993   6.947
37038SOL    HW113121  10.191   1.015   6.877
37038SOL    HW213122  10.116   1.081   6.989
37039SOL     OW13123  10.216   0.901   5.860
37039SOL    HW113124  10.291   0.936   5.807
37039SOL    HW213125  10.258   0.832   5.913
37040SOL     OW13126  10.840   1.615   5.611
37040SOL    HW113127  10.744   1.625   5.605
37040SOL    HW213128  10.869   1.619   5.517
37041SOL     OW13129   9.652   1.281   7.073
37041SOL    HW113130   9.639   1.351   7.006
37041SOL    HW213131   9.572   1.228   7.068
37042SOL     OW13132  10.897   1.298   6.879
37042SOL    HW113133  10.951   1.272   6.955
37042SOL    HW213134  10.839   1.367   6.918
37043SOL     OW13135  10.382   1.112   6.322
37043SOL    HW113136  10.303   1.065   6.354
37043SOL    HW213137  10.443   1.040   6.302
37044SOL     OW13138  10.334   0.240   6.560
37044SOL    HW113139  10.315   0.185   6.482
37044SOL    HW213140  10.339   0.173   6.630
37045SOL     OW13141   9.930   1.490   6.082
37045SOL    HW113142   9.978   1.446   6.010
37045SOL    HW213143   9.850   1.520   6.038
37046SOL     OW13144   9.558   1.382   5.859
37046SOL    HW113145   9.462   1.368   5.850
37046SOL    HW213146   9.567   1.404   5.954
37047SOL     OW13147   9.438   0.993   7.285
37047SOL    HW113148   9.367   0.987   7.353
37047SOL    HW213149   9.519   0.976   7.337
37048SOL     OW13150   9.964   0.228   7.071
37048SOL    HW113151  10.043   0.184   7.034
37048SOL    HW213152   9.994   0.247   7.163
37049SOL     OW13153   9.378   0.355   5.626
37049SOL    HW113154   9.288   0.365   5.592
37049SOL    HW213155   9.424   0.424   5.575
37050SOL     OW13156  10.758   0.835   6.931
37050SOL    HW113157  10.689   0.889   6.891
37050SOL    HW213158  10.757   0.874   7.021
37051SOL     OW13159   9.334   0.174   5.895
37051SOL    HW113160   9.334   0.242   5.826
37051SOL    HW213161   9.425   0.140   5.889
37052SOL     OW13162  10.510   1.345   5.693
37052SOL    HW113163  10.415   1.324   5.691
37052SOL    HW213164  10.525   1.357   5.789
37053SOL     OW13165   9.926   0.798   7.027
37053SOL    HW113166   9.979   0.879   7.015
37053SOL    HW213167   9.998   0.732   7.031
37054SOL     OW13168  10.799   1.747   6.560
37054SOL    HW113169  10.830   1.789   6.479
37054SOL    HW213170  10.878   1.756   6.617
37055SOL     OW13171  10.034   0.578   7.276
37055SOL    HW113172  10.085   0.640   7.331
37055SOL    HW213173  10.043   0.494   7.323
37056SOL     OW13174  10.787   1.269   7.221
37056SOL    HW113175  10.753   1.223   7.300
37056SOL    HW213176  10.863   1.213   7.200
37057SOL     OW13177   9.672   1.722   7.139
37057SOL    HW113178   9.584   1.762   7.130
37057SOL    HW213179   9.651   1.642   7.191
37058SOL     OW13180  11.012   0.867   6.800
37058SOL    HW113181  10.928   0.831   6.830
37058SOL    HW213182  10.984   0.953   6.764
37059SOL     OW13183  10.543   0.309   6.041
37059SOL    HW113184  10.603   0.232   6.045
37059SOL    HW213185  10.573   0.361   6.119
37060SOL     OW13186   9.898   0.752   6.241
37060SOL    HW113187   9.938   0.838   6.225
37060SOL    HW213188   9.822   0.752   6.181
37061SOL     OW13189  11.074   0.375   7.220
37061SOL    HW113190  11.048   0.415   7.135
37061SOL    HW213191  10.997   0.322   7.246
37062SOL     OW13192  11.054   0.923   7.075
37062SOL    HW113193  11.021   1.014   7.086
37062SOL    HW213194  11.034   0.904   6.982
37063SOL     OW13195  10.190   1.361   5.621
37063SOL    HW113196  10.161   1.379   5.712
37063SOL    HW213197  10.200   1.449   5.583
37064SOL     OW13198   9.963   1.805   6.505
37064SOL    HW113199   9.955   1.900   6.488
37064SOL    HW213200  10.059   1.790   6.504
37065SOL     OW13201  10.192   0.951   6.431
37065SOL    HW113202  10.241   0.876   6.469
37065SOL    HW213203  10.168   1.004   6.509
37066SOL     OW13204  10.404   1.001   5.693
37066SOL    HW113205  10.380   1.056   5.617
37066SOL    HW213206  10.461   0.933   5.651
37067SOL     OW13207   0.063   1.549   6.429
37067SOL    HW113208  11.079   1.538   6.386
37067SOL    HW213209   0.069   1.470   6.484
37068SOL     OW13210   9.544   1.312   7.451
37068SOL    HW113211   9.463   1.261   7.441
37068SOL    HW213212   9.550   1.319   7.547
37069SOL     OW13213   9.401   1.254   6.247
37069SOL    HW113214   9.405   1.205   6.329
37069SOL    HW213215   9.475   1.216   6.198
37070SOL     OW13216   9.985   1.401   7.201
37070SOL    HW113217   9.911   1.348   7.238
37070SOL    HW213218   9.968   1.490   7.236
37071SOL     OW13219  11.092   0.169   6.830
37071SOL    HW113220  11.068   0.074   6.825
37071SOL    HW213221   0.017   0.188   6.740
37072SOL     OW13222   9.719   0.420   6.096
37072SOL    HW113223   9.755   0.344   6.048
37072SOL    HW213224   9.687   0.380   6.178
37073SOL     OW13225  10.991   1.485   6.678
37073SOL    HW113226  10.906   1.467   6.638
37073SOL    HW213227  10.993   1.423   6.753
37074SOL     OW13228   9.630   0.547   6.878
37074SOL    HW113229   9.694   0.499   6.936
37074SOL    HW213230   9.660   0.527   6.788
37075SOL     OW13231  10.136   1.595   6.266
37075SOL    HW113232  10.129   1.624   6.174
37075SOL    HW213233  10.050   1.552   6.279
37076SOL     OW13234  10.749   0.249   6.667
37076SOL    HW113235  10.766   0.162   6.705
37076SOL    HW213236  10.706   0.297   6.741
37077SOL     OW13237  10.309   0.007   6.742
37077SOL    HW113238  10.262  11.024   6.739
37077SOL    HW213239  10.401  11.081   6.722
37078SOL     OW13240  10.097   1.336   5.907
37078SOL    HW113241  10.058   1.247   5.906
37078SOL    HW213242  10.169   1.326   5.971
37079SOL     OW13243   9.906   1.571   6.858
37079SOL    HW113244   9.909   1.658   6.901
37079SOL    HW213245  10.000   1.559   6.835
37080SOL     OW13246  10.674   0.055   5.801
37080SOL    HW113247  10.688  11.099   5.724
37080SOL    HW213248  10.578   0.043   5.817
37081SOL     OW13249  10.612   0.467   6.250
37081SOL    HW113250  10.552   0.544   6.249
37081SOL    HW213251  10.601   0.434   6.341
37082SOL     OW13252  10.908   0.232   6.438
37082SOL    HW113253  10.860   0.230   6.523
37082SOL    HW213254  10.858   0.299   6.390
37083SOL     OW13255   9.354   1.067   5.897
37083SOL    HW113256   9.446   1.056   5.868
37083SOL    HW213257   9.328   0.975   5.913
37084SOL     OW13258  10.197   1.653   5.927
37084SOL    HW113259  10.121   1.634   5.869
37084SOL    HW213260  10.171   1.736   5.973
37085SOL     OW13261   9.537   0.614   7.578
37085SOL    HW113262   9.444   0.617   7.606
37085SOL    HW213263   9.532   0.602   7.482
37086SOL     OW13264   9.524   0.296   8.437
37086SOL    HW113265   9.550   0.282   8.529
37086SOL    HW213266   9.452   0.231   8.427
37087SOL     OW13267   9.310   0.403   8.096
37087SOL    HW113268   9.232   0.433   8.147
37087SOL    HW213269   9.271   0.339   8.035
37088SOL     OW13270   9.884   1.290   8.651
37088SOL    HW113271   9.800   1.294   8.601
37088SOL    HW213272   9.894   1.383   8.679
37089SOL     OW13273  10.874   1.526   8.171
37089SOL    HW113274  10.840   1.485   8.253
37089SOL    HW213275  10.807   1.502   8.105
37090SOL     OW13276  10.448   0.691   8.146
37090SOL    HW113277  10.479   0.783   8.134
37090SOL    HW213278  10.405   0.697   8.233
37091SOL     OW13279  11.077   0.620   7.669
37091SOL    HW113280  11.054   0.608   7.575
37091SOL    HW213281  11.034   0.543   7.710
37092SOL     OW13282  10.039   1.162   8.463
37092SOL    HW113283   9.984   1.206   8.530
37092SOL    HW213284  10.085   1.239   8.424
37093SOL     OW13285  10.187   0.762   9.257
37093SOL    HW113286  10.155   0.820   9.328
37093SOL    HW213287  10.201   0.825   9.183
37094SOL     OW13288  10.002   1.042   8.096
37094SOL    HW113289  10.061   1.015   8.168
37094SOL    HW213290   9.929   1.087   8.143
37095SOL     OW13291  10.016   1.165   9.250
37095SOL    HW113292  10.067   1.245   9.274
37095SOL    HW213293   9.933   1.203   9.216
37096SOL     OW13294   9.637   1.424   8.508
37096SOL    HW113295   9.565   1.382   8.458
37096SOL    HW213296   9.687   1.475   8.440
37097SOL     OW13297  10.767   1.494   8.844
37097SOL    HW113298  10.790   1.587   8.848
37097SOL    HW213299  10.686   1.493   8.898
37098SOL     OW13300   9.743   0.402   8.955
37098SOL    HW113301   9.819   0.343   8.940
37098SOL    HW213302   9.667   0.344   8.945
37099SOL     OW13303   9.525   1.707   7.924
37099SOL    HW113304   9.553   1.784   7.976
37099SOL    HW213305   9.593   1.706   7.854
37100SOL     OW13306  10.445   1.353   9.128
37100SOL    HW113307  10.495   1.344   9.211
37100SOL    HW213308  10.391   1.272   9.130
37101SOL     OW13309   9.560   1.439   7.992
37101SOL    HW113310   9.549   1.536   7.985
37101SOL    HW213311   9.487   1.414   8.050
37102SOL     OW13312   9.585   1.096   8.353
37102SOL    HW113313   9.569   1.022   8.412
37102SOL    HW213314   9.523   1.163   8.389
37103SOL     OW13315   9.902   1.802   8.853
37103SOL    HW113316   9.832   1.774   8.913
37103SOL    HW213317   9.928   1.889   8.888
37104SOL     OW13318   9.883   0.995   7.563
37104SOL    HW113319   9.927   1.055   7.499
37104SOL    HW213320   9.925   1.025   7.646
37105SOL     OW13321  10.916   0.092   8.929
37105SOL    HW113322  10.948   0.147   8.855
37105SOL    HW213323  10.880   0.157   8.991
37106SOL     OW13324   9.447   0.663   8.017
37106SOL    HW113325   9.412   0.577   8.045
37106SOL    HW213326   9.434   0.718   8.097
37107SOL     OW13327   9.369   1.599   7.559
37107SOL    HW113328   9.357   1.504   7.574
37107SOL    HW213329   9.337   1.637   7.643
37108SOL     OW13330  10.998   0.962   8.061
37108SOL    HW113331  11.057   0.893   8.095
37108SOL    HW213332  11.024   0.967   7.968
37109SOL     OW13333   9.447   0.743   9.031
37109SOL    HW113334   9.540   0.771   9.035
37109SOL    HW213335   9.403   0.823   9.063
37110SOL     OW13336   9.918   1.404   8.212
37110SOL    HW113337   9.878   1.315   8.220
37110SOL    HW213338   9.903   1.422   8.117
37111SOL     OW13339  10.597   1.230   8.886
37111SOL    HW113340  10.616   1.163   8.818
37111SOL    HW213341  10.673   1.222   8.947
37112SOL     OW13342  10.147   0.003   7.980
37112SOL    HW113343  10.173   0.096   7.963
37112SOL    HW213344  10.053   0.004   7.957
37113SOL     OW13345   9.495   0.978   8.719
37113SOL    HW113346   9.580   0.938   8.696
37113SOL    HW213347   9.432   0.926   8.668
37114SOL     OW13348  10.837   0.951   7.623
37114SOL    HW113349  10.766   0.899   7.665
37114SOL    HW213350  10.899   0.966   7.695
37115SOL     OW13351  10.493   1.804   9.057
37115SOL    HW113352  10.484   1.861   8.980
37115SOL    HW213353  10.513   1.717   9.018
37116SOL     OW13354   9.621   0.253   9.278
37116SOL    HW113355   9.660   0.341   9.288
37116SOL    HW213356   9.528   0.271   9.304
37117SOL     OW13357  10.756   1.425   8.401
37117SOL    HW113358  10.693   1.442   8.474
37117SOL    HW213359  10.740   1.330   8.382
37118SOL     OW13360  10.977   1.719   8.011
37118SOL    HW113361  10.951   1.659   7.941
37118SOL    HW213362  10.961   1.664   8.090
37119SOL     OW13363   9.900   0.710   7.711
37119SOL    HW113364   9.904   0.799   7.674
37119SOL    HW213365   9.829   0.716   7.777
37120SOL     OW13366  10.565   0.371   8.377
37120SOL    HW113367  10.480   0.327   8.395
37120SOL    HW213368  10.626   0.319   8.432
37121SOL     OW13369  10.865   1.638   7.738
37121SOL    HW113370  10.916   1.719   7.742
37121SOL    HW213371  10.845   1.632   7.642
37122SOL     OW13372  10.122   0.608   8.896
37122SOL    HW113373  10.100   0.582   8.989
37122SOL    HW213374  10.063   0.549   8.845
37123SOL     OW13375  10.686   0.500   9.111
37123SOL    HW113376  10.688   0.551   9.194
37123SOL    HW213377  10.752   0.431   9.129
37124SOL     OW13378  10.248   0.909   9.039
37124SOL    HW113379  10.301   0.833   9.007
37124SOL    HW213380  10.204   0.935   8.956
37125SOL     OW13381  10.320   0.389   8.682
37125SOL    HW113382  10.239   0.417   8.726
37125SOL    HW213383  10.287   0.341   8.605
37126SOL     OW13384  10.362   0.695   7.873
37126SOL    HW113385  10.374   0.698   7.969
37126SOL    HW213386  10.273   0.653   7.866
37127SOL     OW13387   9.428   0.823   8.226
37127SOL    HW113388   9.488   0.822   8.302
37127SOL    HW213389   9.377   0.904   8.241
37128SOL     OW13390   9.413   1.838   9.013
37128SOL    HW113391   9.425   1.822   9.109
37128SOL    HW213392   9.319   1.823   9.001
37129SOL     OW13393  10.211   0.368   7.672
37129SOL    HW113394  10.272   0.413   7.613
37129SOL    HW213395  10.174   0.301   7.614
37130SOL     OW13396  11.015   0.569   9.284
37130SOL    HW113397  10.972   0.643   9.235
37130SOL    HW213398  11.051   0.518   9.208
37131SOL     OW13399  10.683   1.169   8.040
37131SOL    HW113400  10.735   1.153   7.960
37131SOL    HW213401  10.617   1.231   8.006
37132SOL     OW13402   9.843   0.193   8.331
37132SOL    HW113403   9.866   0.210   8.423
37132SOL    HW213404   9.859   0.278   8.287
37133SOL     OW13405  10.336   1.459   7.952
37133SOL    HW113406  10.298   1.515   7.882
37133SOL    HW213407  10.301   1.501   8.031
37134SOL     OW13408   9.654   1.816   8.298
37134SOL    HW113409   9.703   1.732   8.313
37134SOL    HW213410   9.723   1.883   8.314
37135SOL     OW13411  11.091   1.050   8.318
37135SOL    HW113412  11.035   1.061   8.238
37135SOL    HW213413  11.026   1.041   8.390
37136SOL     OW13414  10.529   1.549   8.953
37136SOL    HW113415  10.506   1.485   9.024
37136SOL    HW213416  10.473   1.516   8.881
37137SOL     OW13417   9.619   0.950   7.697
37137SOL    HW113418   9.700   0.978   7.651
37137SOL    HW213419   9.596   0.869   7.650
37138SOL     OW13420  10.784   0.751   8.175
37138SOL    HW113421  10.766   0.699   8.256
37138SOL    HW213422  10.863   0.800   8.200
37139SOL     OW13423   9.769   1.283   9.172
37139SOL    HW113424   9.728   1.288   9.083
37139SOL    HW213425   9.690   1.279   9.228
37140SOL     OW13426  10.434   1.771   7.691
37140SOL    HW113427  10.362   1.722   7.736
37140SOL    HW213428  10.445   1.721   7.608
37141SOL     OW13429   9.477   0.301   8.949
37141SOL    HW113430   9.401   0.352   8.981
37141SOL    HW213431   9.454   0.211   8.980
37142SOL     OW13432   9.754   1.738   7.774
37142SOL    HW113433   9.811   1.780   7.841
37142SOL    HW213434   9.821   1.707   7.709
37143SOL     OW13435  10.731   0.100   7.925
37143SOL    HW113436  10.718   0.087   7.829
37143SOL    HW213437  10.826   0.116   7.932
37144SOL     OW13438   9.572   1.804   8.678
37144SOL    HW113439   9.616   1.731   8.723
37144SOL    HW213440   9.553   1.765   8.591
37145SOL     OW13441  10.275   1.690   8.337
37145SOL    HW113442  10.364   1.651   8.336
37145SOL    HW213443  10.230   1.642   8.264
37146SOL     OW13444   9.711   0.680   7.910
37146SOL    HW113445   9.718   0.582   7.922
37146SOL    HW213446   9.624   0.697   7.950
37147SOL     OW13447  10.840   0.231   9.165
37147SOL    HW113448  10.845   0.247   9.262
37147SOL    HW213449  10.776   0.159   9.164
37148SOL     OW13450   9.954   0.137   7.543
37148SOL    HW113451   9.991   0.053   7.574
37148SOL    HW213452   9.898   0.108   7.468
37149SOL     OW13453  10.060   0.280   9.196
37149SOL    HW113454  10.144   0.232   9.201
37149SOL    HW213455  10.012   0.246   9.274
37150SOL     OW13456  10.188   1.548   8.640
37150SOL    HW113457  10.182   1.517   8.548
37150SOL    HW213458  10.242   1.479   8.682
37151SOL     OW13459  10.609   0.601   8.865
37151SOL    HW113460  10.649   0.564   8.946
37151SOL    HW213461  10.657   0.685   8.856
37152SOL     OW13462  10.140   1.402   8.386
37152SOL    HW113463  10.225   1.395   8.337
37152SOL    HW213464  10.075   1.406   8.313
37153SOL     OW13465  10.249   0.515   8.355
37153SOL    HW113466  10.224   0.492   8.262
37153SOL    HW213467  10.276   0.428   8.388
37154SOL     OW13468   9.843   0.013   7.946
37154SOL    HW113469   9.759   0.021   7.995
37154SOL    HW213470   9.835   0.088   7.884
37155SOL     OW13471  10.771   1.183   7.495
37155SOL    HW113472  10.788   1.094   7.530
37155SOL    HW213473  10.676   1.192   7.506
37156SOL     OW13474   9.606   0.045   7.671
37156SOL    HW113475   9.664   0.122   7.663
37156SOL    HW213476   9.667  11.075   7.692
37157SOL     OW13477  10.251   0.257   7.932
37157SOL    HW113478  10.225   0.290   7.844
37157SOL    HW213479  10.347   0.267   7.928
37158SOL     OW13480  10.372   0.709   8.924
37158SOL    HW113481  10.301   0.642   8.920
37158SOL    HW213482  10.453   0.656   8.911
37159SOL     OW13483  10.533   1.610   8.235
37159SOL    HW113484  10.548   1.668   8.159
37159SOL    HW213485  10.621   1.604   8.275
37160SOL     OW13486   9.788   1.170   8.190
37160SOL    HW113487   9.718   1.136   8.250
37160SOL    HW213488   9.749   1.150   8.102
37161SOL     OW13489  10.572   1.810   8.036
37161SOL    HW113490  10.617   1.866   7.971
37161SOL    HW213491  10.546   1.874   8.103
37162SOL     OW13492  10.342   0.532   7.462
37162SOL    HW113493  10.299   0.613   7.430
37162SOL    HW213494  10.409   0.566   7.524
37163SOL     OW13495   9.376   0.570   8.840
37163SOL    HW113496   9.470   0.556   8.817
37163SOL    HW213497   9.384   0.641   8.908
37164SOL     OW13498   9.864   0.223   8.621
37164SOL    HW113499   9.910   0.170   8.686
37164SOL    HW213500   9.772   0.220   8.654
37165SOL     OW13501  10.187   0.447   8.106
37165SOL    HW113502  10.144   0.501   8.038
37165SOL    HW213503  10.211   0.367   8.055
37166SOL     OW13504  10.322   0.001   8.245
37166SOL    HW113505  10.304   0.037   8.158
37166SOL    HW213506  10.284  11.014   8.239
37167SOL     OW13507  10.741   1.164   8.331
37167SOL    HW113508  10.709   1.078   8.360
37167SOL    HW213509  10.721   1.162   8.236
37168SOL     OW13510  10.765   0.613   8.432
37168SOL    HW113511  10.705   0.536   8.432
37168SOL    HW213512  10.848   0.575   8.466
37169SOL     OW13513  11.100   0.826   7.830
37169SOL    HW113514   0.058   0.782   7.894
37169SOL    HW213515  11.096   0.755   7.761
37170SOL     OW13516   9.793   1.342   7.618
37170SOL    HW113517   9.708   1.374   7.655
37170SOL    HW213518   9.842   1.424   7.606
37171SOL     OW13519  10.716   0.576   7.523
37171SOL    HW113520  10.660   0.564   7.601
37171SOL    HW213521  10.805   0.570   7.560
37172SOL     OW13522   9.816   0.237   7.755
37172SOL    HW113523   9.878   0.209   7.686
37172SOL    HW213524   9.795   0.329   7.725
37173SOL     OW13525  11.050   1.253   9.053
37173SOL    HW113526   0.032   1.205   9.037
37173SOL    HW213527  11.081   1.329   9.103
37174SOL     OW13528  10.374   1.347   8.788
37174SOL    HW113529  10.292   1.315   8.827
37174SOL    HW213530  10.442   1.301   8.842
37175SOL     OW13531  10.941   1.627   9.098
37175SOL    HW113532  10.937   1.657   9.007
37175SOL    HW213533  11.013   1.564   9.096
37176SOL     OW13534  10.442   1.220   8.534
37176SOL    HW113535  10.378   1.246   8.601
37176SOL    HW213536  10.411   1.265   8.454
37177SOL     OW13537  10.914   1.084   8.544
37177SOL    HW113538  10.912   1.146   8.619
37177SOL    HW213539  10.856   1.131   8.481
37178SOL     OW13540  10.201   0.113   8.840
37178SOL    HW113541  10.233   0.082   8.753
37178SOL    HW213542  10.285   0.132   8.884
37179SOL     OW13543  10.308   1.127   9.193
37179SOL    HW113544  10.218   1.156   9.218
37179SOL    HW213545  10.290   1.052   9.133
37180SOL     OW13546  10.013   1.052   7.791
37180SOL    HW113547  10.014   1.050   7.888
37180SOL    HW213548  10.090   0.996   7.768
37181SOL     OW13549   9.727   0.798   8.708
37181SOL    HW113550   9.798   0.795   8.775
37181SOL    HW213551   9.684   0.712   8.718
37182SOL     OW13552  10.597   0.382   8.715
37182SOL    HW113553  10.612   0.464   8.765
37182SOL    HW213554  10.503   0.391   8.692
37183SOL     OW13555   9.379   1.565   8.783
37183SOL    HW113556   9.373   1.651   8.740
37183SOL    HW213557   9.473   1.542   8.773
37184SOL     OW13558   9.693   1.120   7.947
37184SOL    HW113559   9.695   1.188   7.879
37184SOL    HW213560   9.677   1.040   7.896
37185SOL     OW13561   9.845   0.551   8.278
37185SOL    HW113562   9.879   0.618   8.214
37185SOL    HW213563   9.910   0.558   8.350
37186SOL     OW13564  10.557   1.365   7.817
37186SOL    HW113565  10.606   1.437   7.861
37186SOL    HW213566  10.472   1.371   7.864
37187SOL     OW13567  10.605   1.471   8.621
37187SOL    HW113568  10.674   1.463   8.690
37187SOL    HW213569  10.542   1.403   8.646
37188SOL     OW13570  10.888   0.630   7.904
37188SOL    HW113571  10.834   0.667   7.975
37188SOL    HW213572  10.945   0.703   7.880
37189SOL     OW13573   9.646   1.506   8.752
37189SOL    HW113574   9.644   1.471   8.660
37189SOL    HW213575   9.740   1.530   8.760
37190SOL     OW13576   9.741   0.719   9.077
37190SOL    HW113577   9.800   0.770   9.017
37190SOL    HW213578   9.768   0.628   9.058
37191SOL     OW13579  10.914   0.754   9.125
37191SOL    HW113580  10.831   0.803   9.131
37191SOL    HW213581  10.963   0.808   9.060
37192SOL     OW13582  10.305   0.152   9.214
37192SOL    HW113583  10.357   0.227   9.182
37192SOL    HW213584  10.356   0.077   9.179
37193SOL     OW13585   9.790   0.053   9.195
37193SOL    HW113586   9.727  11.098   9.148
37193SOL    HW213587   9.734   0.130   9.217
37194SOL     OW13588   9.928   0.884   8.510
37194SOL    HW113589   9.937   0.980   8.497
37194SOL    HW213590   9.854   0.877   8.573
37195SOL     OW13591  10.687   0.899   8.468
37195SOL    HW113592  10.604   0.854   8.447
37195SOL    HW213593  10.743   0.822   8.483
37196SOL     OW13594  10.523   0.523   7.719
37196SOL    HW113595  10.541   0.445   7.775
37196SOL    HW213596  10.471   0.579   7.778
37197SOL     OW13597   9.606   0.214   8.713
37197SOL    HW113598   9.562   0.256   8.789
37197SOL    HW213599   9.557   0.131   8.705
37198SOL     OW13600   9.350   1.290   8.733
37198SOL    HW113601   9.367   1.236   8.812
37198SOL    HW213602   9.349   1.381   8.768
37199SOL     OW13603  10.019   0.614   8.483
37199SOL    HW113604  10.106   0.602   8.441
37199SOL    HW213605  10.005   0.711   8.481
37200SOL     OW13606   9.605   0.057   8.062
37200SOL    HW113607   9.580   0.150   8.078
37200SOL    HW213608   9.611   0.025   8.153
37201SOL     OW13609  10.939   0.377   7.796
37201SOL    HW113610  10.980   0.313   7.856
37201SOL    HW213611  10.913   0.449   7.856
37202SOL     OW13612  10.364   0.744   8.408
37202SOL    HW113613  10.346   0.758   8.503
37202SOL    HW213614  10.330   0.653   8.395
37203SOL     OW13615  10.287   1.566   9.162
37203SOL    HW113616  10.285   1.617   9.078
37203SOL    HW213617  10.338   1.486   9.138
37204SOL     OW13618   9.680   0.910   9.247
37204SOL    HW113619   9.761   0.928   9.296
37204SOL    HW213620   9.704   0.832   9.193
37205SOL     OW13621  10.841   0.233   7.566
37205SOL    HW113622  10.778   0.177   7.614
37205SOL    HW213623  10.871   0.294   7.636
37206SOL     OW13624  10.597   0.822   7.469
37206SOL    HW113625  10.656   0.745   7.471
37206SOL    HW213626  10.624   0.866   7.386
37207SOL     OW13627  10.387   1.366   8.298
37207SOL    HW113628  10.397   1.288   8.239
37207SOL    HW213629  10.446   1.433   8.259
37208SOL     OW13630   9.590   0.827   8.451
37208SOL    HW113631   9.680   0.849   8.426
37208SOL    HW213632   9.598   0.732   8.473
37209SOL     OW13633   9.641   0.543   8.449
37209SOL    HW113634   9.604   0.455   8.429
37209SOL    HW213635   9.707   0.552   8.376
37210SOL     OW13636  10.439   0.392   9.109
37210SOL    HW113637  10.399   0.433   9.188
37210SOL    HW213638  10.526   0.437   9.106
37211SOL     OW13639  10.466   0.213   8.908
37211SOL    HW113640  10.451   0.287   8.970
37211SOL    HW213641  10.506   0.258   8.832
37212SOL     OW13642   9.317   1.321   7.644
37212SOL    HW113643   9.225   1.338   7.613
37212SOL    HW213644   9.311   1.229   7.676
37213SOL     OW13645   9.404   1.790   8.387
37213SOL    HW113646   9.372   1.717   8.329
37213SOL    HW213647   9.496   1.801   8.353
37214SOL     OW13648   9.795   1.583   8.368
37214SOL    HW113649   9.863   1.652   8.382
37214SOL    HW213650   9.844   1.519   8.313
37215SOL     OW13651  10.290   0.768   8.667
37215SOL    HW113652  10.338   0.750   8.751
37215SOL    HW213653  10.199   0.758   8.696
37216SOL     OW13654   9.334   0.515   8.551
37216SOL    HW113655   9.414   0.514   8.497
37216SOL    HW213656   9.368   0.526   8.640
37217SOL     OW13657   9.528   0.514   9.172
37217SOL    HW113658   9.569   0.460   9.103
37217SOL    HW213659   9.501   0.593   9.122
37218SOL     OW13660  10.700   0.921   9.113
37218SOL    HW113661  10.710   1.017   9.122
37218SOL    HW213662  10.686   0.911   9.018
37219SOL     OW13663  10.119   0.587   7.830
37219SOL    HW113664  10.136   0.512   7.772
37219SOL    HW213665  10.044   0.632   7.788
37220SOL     OW13666   9.555   1.534   9.181
37220SOL    HW113667   9.545   1.608   9.242
37220SOL    HW213668   9.553   1.457   9.240
37221SOL     OW13669   9.982   0.471   8.712
37221SOL    HW113670   9.942   0.390   8.675
37221SOL    HW213671   9.986   0.529   8.634
37222SOL     OW13672  10.242   1.700   8.926
37222SOL    HW113673  10.216   1.667   8.839
37222SOL    HW213674  10.233   1.797   8.915
37223SOL     OW13675   9.760   0.476   7.644
37223SOL    HW113676   9.821   0.552   7.654
37223SOL    HW213677   9.674   0.522   7.639
37224SOL     OW13678   9.416   1.129   8.931
37224SOL    HW113679   9.429   1.073   9.011
37224SOL    HW213680   9.446   1.070   8.859
37225SOL     OW13681  10.603   1.063   8.666
37225SOL    HW113682  10.641   1.011   8.594
37225SOL    HW213683  10.544   1.125   8.617
37226SOL     OW13684  10.626   0.832   7.744
37226SOL    HW113685  10.547   0.804   7.792
37226SOL    HW213686  10.592   0.847   7.654
37227SOL     OW13687  11.043   1.758   8.581
37227SOL    HW113688   0.015   1.773   8.519
37227SOL    HW213689  11.024   1.662   8.569
37228SOL     OW13690  10.566   1.728   8.557
37228SOL    HW113691  10.649   1.741   8.508
37228SOL    HW213692  10.568   1.632   8.575
37229SOL     OW13693   9.409   1.255   8.475
37229SOL    HW113694   9.381   1.264   8.569
37229SOL    HW213695   9.335   1.206   8.437
37230SOL     OW13696  10.002   1.636   9.181
37230SOL    HW113697   9.966   1.725   9.170
37230SOL    HW213698  10.097   1.648   9.163
37231SOL     OW13699  11.024   0.143   7.957
37231SOL    HW113700  11.089   0.134   7.883
37231SOL    HW213701  11.044   0.067   8.012
37232SOL     OW13702  10.687   1.580   7.953
37232SOL    HW113703  10.741   1.599   7.875
37232SOL    HW213704  10.639   1.664   7.969
37233SOL     OW13705   9.457   1.796   9.279
37233SOL    HW113706   9.416   1.726   9.333
37233SOL    HW213707   9.507   1.845   9.346
37234SOL     OW13708  10.565   0.929   8.126
37234SOL    HW113709  10.640   0.869   8.140
37234SOL    HW213710  10.605   0.998   8.071
37235SOL     OW13711  10.096   1.251   8.855
37235SOL    HW113712  10.078   1.301   8.938
37235SOL    HW213713  10.013   1.265   8.807
37236SOL     OW13714   9.552   0.304   8.149
37236SOL    HW113715   9.465   0.346   8.130
37236SOL    HW213716   9.555   0.310   8.246
37237SOL     OW13717  10.507   1.623   7.472
37237SOL    HW113718  10.518   1.529   7.495
37237SOL    HW213719  10.443   1.618   7.398
37238SOL     OW13720  10.134   0.990   8.812
37238SOL    HW113721  10.182   0.986   8.728
37238SOL    HW213722  10.124   1.087   8.825
37239SOL     OW13723  10.221   0.902   7.716
37239SOL    HW113724  10.295   0.937   7.662
37239SOL    HW213725  10.261   0.827   7.761
37240SOL     OW13726  10.824   1.665   7.480
37240SOL    HW113727  10.731   1.638   7.469
37240SOL    HW213728  10.859   1.653   7.389
37241SOL     OW13729   9.653   1.284   8.932
37241SOL    HW113730   9.640   1.350   8.862
37241SOL    HW213731   9.572   1.231   8.927
37242SOL     OW13732  10.883   1.291   8.722
37242SOL    HW113733  10.971   1.292   8.761
37242SOL    HW213734  10.837   1.361   8.772
37243SOL     OW13735  10.380   1.115   8.187
37243SOL    HW113736  10.300   1.068   8.220
37243SOL    HW213737  10.441   1.041   8.170
37244SOL     OW13738  10.326   0.238   8.423
37244SOL    HW113739  10.311   0.185   8.343
37244SOL    HW213740  10.335   0.168   8.490
37245SOL     OW13741   9.934   1.490   7.951
37245SOL    HW113742   9.986   1.440   7.885
37245SOL    HW213743   9.864   1.527   7.897
37246SOL     OW13744   9.563   1.407   7.728
37246SOL    HW113745   9.468   1.389   7.713
37246SOL    HW213746   9.567   1.414   7.825
37247SOL     OW13747   9.439   0.988   9.153
37247SOL    HW113748   9.367   0.987   9.219
37247SOL    HW213749   9.518   0.969   9.206
37248SOL     OW13750   9.959   0.220   8.937
37248SOL    HW113751  10.040   0.180   8.900
37248SOL    HW213752   9.990   0.247   9.026
37249SOL     OW13753   9.375   0.350   7.473
37249SOL    HW113754   9.284   0.369   7.450
37249SOL    HW213755   9.421   0.419   7.421
37250SOL     OW13756  10.717   0.861   8.834
37250SOL    HW113757  10.676   0.926   8.775
37250SOL    HW213758  10.811   0.867   8.810
37251SOL     OW13759   9.331   0.166   7.753
37251SOL    HW113760   9.330   0.234   7.684
37251SOL    HW213761   9.421   0.131   7.746
37252SOL     OW13762  10.506   1.343   7.548
37252SOL    HW113763  10.413   1.317   7.549
37252SOL    HW213764  10.528   1.347   7.643
37253SOL     OW13765   9.927   0.801   8.885
37253SOL    HW113766   9.980   0.881   8.874
37253SOL    HW213767   9.996   0.734   8.893
37254SOL     OW13768  10.799   1.763   8.407
37254SOL    HW113769  10.834   1.797   8.324
37254SOL    HW213770  10.877   1.767   8.464
37255SOL     OW13771  10.048   0.563   9.144
37255SOL    HW113772  10.087   0.628   9.205
37255SOL    HW213773  10.052   0.479   9.192
37256SOL     OW13774  10.789   1.191   9.065
37256SOL    HW113775  10.774   1.199   9.161
37256SOL    HW213776  10.884   1.214   9.059
37257SOL     OW13777   9.673   1.726   9.003
37257SOL    HW113778   9.586   1.767   8.988
37257SOL    HW213779   9.647   1.640   9.042
37258SOL     OW13780  10.989   0.858   8.675
37258SOL    HW113781  11.006   0.788   8.609
37258SOL    HW213782  10.964   0.934   8.620
37259SOL     OW13783  10.536   0.302   7.906
37259SOL    HW113784  10.595   0.225   7.911
37259SOL    HW213785  10.569   0.357   7.980
37260SOL     OW13786   9.906   0.751   8.102
37260SOL    HW113787   9.937   0.840   8.081
37260SOL    HW213788   9.838   0.735   8.034
37261SOL     OW13789  11.064   0.387   9.091
37261SOL    HW113790  11.044   0.418   9.002
37261SOL    HW213791  10.993   0.322   9.109
37262SOL     OW13792  11.027   0.907   8.941
37262SOL    HW113793  11.020   1.004   8.938
37262SOL    HW213794  11.029   0.883   8.846
37263SOL     OW13795  10.175   1.374   7.493
37263SOL    HW113796  10.124   1.408   7.567
37263SOL    HW213797  10.202   1.455   7.447
37264SOL     OW13798   9.956   1.795   8.367
37264SOL    HW113799   9.949   1.891   8.351
37264SOL    HW213800  10.051   1.778   8.359
37265SOL     OW13801  10.186   0.952   8.295
37265SOL    HW113802  10.235   0.878   8.335
37265SOL    HW213803  10.156   1.002   8.372
37266SOL     OW13804  10.414   0.995   7.549
37266SOL    HW113805  10.391   1.052   7.473
37266SOL    HW213806  10.477   0.932   7.510
37267SOL     OW13807   0.051   1.549   8.283
37267SOL    HW113808  11.069   1.530   8.238
37267SOL    HW213809   0.067   1.466   8.330
37268SOL     OW13810   9.548   1.306   9.323
37268SOL    HW113811   9.463   1.264   9.308
37268SOL    HW213812   9.545   1.323   9.419
37269SOL     OW13813   9.387   1.260   8.116
37269SOL    HW113814   9.354   1.183   8.165
37269SOL    HW213815   9.469   1.225   8.078
37270SOL     OW13816   9.992   1.393   9.064
37270SOL    HW113817   9.910   1.352   9.096
37270SOL    HW213818   9.991   1.479   9.110
37271SOL     OW13819  11.063   0.176   8.706
37271SOL    HW113820  11.057   0.083   8.676
37271SOL    HW213821   0.040   0.208   8.661
37272SOL     OW13822   9.728   0.406   7.963
37272SOL    HW113823   9.750   0.327   7.912
37272SOL    HW213824   9.688   0.370   8.044
37273SOL     OW13825  10.972   1.508   8.550
37273SOL    HW113826  10.894   1.490   8.495
37273SOL    HW213827  10.989   1.422   8.591
37274SOL     OW13828   9.631   0.543   8.735
37274SOL    HW113829   9.697   0.492   8.786
37274SOL    HW213830   9.657   0.527   8.642
37275SOL     OW13831  10.141   1.594   8.123
37275SOL    HW113832  10.141   1.630   8.034
37275SOL    HW213833  10.055   1.549   8.126
37276SOL     OW13834  10.742   0.246   8.535
37276SOL    HW113835  10.774   0.167   8.579
37276SOL    HW213836  10.699   0.295   8.608
37277SOL     OW13837  10.313   0.007   8.604
37277SOL    HW113838  10.268  11.023   8.594
37277SOL    HW213839  10.406  11.084   8.584
37278SOL     OW13840  10.081   1.341   7.779
37278SOL    HW113841  10.031   1.263   7.751
37278SOL    HW213842  10.166   1.304   7.803
37279SOL     OW13843   9.909   1.561   8.728
37279SOL    HW113844   9.910   1.645   8.778
37279SOL    HW213845   9.998   1.561   8.691
37280SOL     OW13846  10.669   0.056   7.671
37280SOL    HW113847  10.686  11.095   7.598
37280SOL    HW213848  10.572   0.046   7.682
37281SOL     OW13849  10.607   0.450   8.116
37281SOL    HW113850  10.558   0.534   8.111
37281SOL    HW213851  10.587   0.421   8.207
37282SOL     OW13852  10.908   0.231   8.303
37282SOL    HW113853  10.859   0.233   8.386
37282SOL    HW213854  10.858   0.294   8.250
37283SOL     OW13855   9.360   1.047   7.737
37283SOL    HW113856   9.453   1.035   7.710
37283SOL    HW213857   9.341   0.960   7.776
37284SOL     OW13858  10.210   1.655   7.807
37284SOL    HW113859  10.140   1.642   7.740
37284SOL    HW213860  10.183   1.739   7.849
37285SOL     OW13861   9.531   0.610   9.445
37285SOL    HW113862   9.436   0.618   9.464
37285SOL    HW213863   9.536   0.604   9.349
37286SOL     OW13864   9.526   0.291  10.283
37286SOL    HW113865   9.557   0.277  10.374
37286SOL    HW213866   9.457   0.223  10.276
37287SOL     OW13867   9.309   0.394   9.953
37287SOL    HW113868   9.236   0.428  10.007
37287SOL    HW213869   9.264   0.332   9.895
37288SOL     OW13870   9.872   1.309  10.453
37288SOL    HW113871   9.776   1.305  10.439
37288SOL    HW213872   9.882   1.390  10.505
37289SOL     OW13873  10.897   1.502  10.007
37289SOL    HW113874  10.855   1.486  10.093
37289SOL    HW213875  10.824   1.492   9.944
37290SOL     OW13876  10.444   0.685  10.010
37290SOL    HW113877  10.480   0.774   9.993
37290SOL    HW213878  10.405   0.701  10.097
37291SOL     OW13879  11.088   0.611   9.535
37291SOL    HW113880  11.060   0.600   9.441
37291SOL    HW213881  11.041   0.537   9.577
37292SOL     OW13882  10.050   1.136  10.343
37292SOL    HW113883   9.983   1.191  10.389
37292SOL    HW213884  10.092   1.204  10.289
37293SOL     OW13885  10.185   0.776   0.031
37293SOL    HW113886  10.187   0.843   0.101
37293SOL    HW213887  10.212   0.828  11.053
37294SOL     OW13888  10.004   1.038   9.968
37294SOL    HW113889  10.065   1.015  10.040
37294SOL    HW213890   9.926   1.072  10.016
37295SOL     OW13891   9.621   1.436  10.382
37295SOL    HW113892   9.554   1.386  10.332
37295SOL    HW213893   9.675   1.479  10.313
37296SOL     OW13894  10.764   1.489  10.683
37296SOL    HW113895  10.796   1.579  10.688
37296SOL    HW213896  10.682   1.494  10.736
37297SOL     OW13897   9.747   0.392  10.788
37297SOL    HW113898   9.823   0.331  10.780
37297SOL    HW213899   9.671   0.335  10.805
37298SOL     OW13900   9.526   1.720   9.789
37298SOL    HW113901   9.561   1.796   9.839
37298SOL    HW213902   9.587   1.716   9.714
37299SOL     OW13903   9.563   1.442   9.852
37299SOL    HW113904   9.559   1.539   9.854
37299SOL    HW213905   9.487   1.416   9.906
37300SOL     OW13906   9.566   1.074  10.187
37300SOL    HW113907   9.589   1.006  10.252
37300SOL    HW213908   9.518   1.140  10.242
37301SOL     OW13909   9.901   1.799  10.723
37301SOL    HW113910   9.829   1.780  10.787
37301SOL    HW213911   9.929   1.889  10.749
37302SOL     OW13912   9.881   0.999   9.423
37302SOL    HW113913   9.934   1.051   9.359
37302SOL    HW213914   9.919   1.031   9.508
37303SOL     OW13915  10.897   0.147  10.812
37303SOL    HW113916  10.903   0.157  10.716
37303SOL    HW213917  10.968   0.207  10.840
37304SOL     OW13918   9.420   0.669   9.880
37304SOL    HW113919   9.404   0.577   9.907
37304SOL    HW213920   9.419   0.718   9.965
37305SOL     OW13921   9.368   1.592   9.431
37305SOL    HW113922   9.355   1.498   9.448
37305SOL    HW213923   9.328   1.634   9.509
37306SOL     OW13924  10.991   0.964   9.905
37306SOL    HW113925  11.056   0.897   9.925
37306SOL    HW213926  11.024   0.999   9.822
37307SOL     OW13927   9.430   0.727  10.897
37307SOL    HW113928   9.513   0.728  10.947
37307SOL    HW213929   9.400   0.819  10.904
37308SOL     OW13930   9.905   1.401  10.074
37308SOL    HW113931   9.869   1.310  10.079
37308SOL    HW213932   9.897   1.416   9.978
37309SOL     OW13933  10.607   1.240  10.740
37309SOL    HW113934  10.618   1.177  10.666
37309SOL    HW213935  10.682   1.219  10.797
37310SOL     OW13936  10.131  11.088   9.823
37310SOL    HW113937  10.175   0.069   9.795
37310SOL    HW213938  10.038   0.006   9.804
37311SOL     OW13939   9.524   0.969  10.607
37311SOL    HW113940   9.602   0.912  10.591
37311SOL    HW213941   9.455   0.927  10.556
37312SOL     OW13942  10.827   0.957   9.498
37312SOL    HW113943  10.761   0.907   9.550
37312SOL    HW213944  10.900   0.967   9.560
37313SOL     OW13945  10.509   1.777  10.906
37313SOL    HW113946  10.524   1.849  10.845
37313SOL    HW213947  10.519   1.698  10.849
37314SOL     OW13948   9.615   0.242   0.023
37314SOL    HW113949   9.680   0.312   0.038
37314SOL    HW213950   9.532   0.289   0.044
37315SOL     OW13951  10.771   1.431  10.258
37315SOL    HW113952  10.705   1.445  10.328
37315SOL    HW213953  10.755   1.338  10.233
37316SOL     OW13954  10.994   1.722   9.877
37316SOL    HW113955  10.950   1.679   9.803
37316SOL    HW213956  10.981   1.656   9.948
37317SOL     OW13957   9.900   0.717   9.579
37317SOL    HW113958   9.907   0.801   9.533
37317SOL    HW213959   9.828   0.734   9.643
37318SOL     OW13960  10.579   0.383  10.239
37318SOL    HW113961  10.488   0.353  10.256
37318SOL    HW213962  10.630   0.328  10.302
37319SOL     OW13963  10.868   1.634   9.598
37319SOL    HW113964  10.915   1.717   9.595
37319SOL    HW213965  10.844   1.623   9.503
37320SOL     OW13966  10.129   0.589  10.772
37320SOL    HW113967  10.091   0.577  10.861
37320SOL    HW213968  10.066   0.540  10.715
37321SOL     OW13969  10.262   0.877  10.901
37321SOL    HW113970  10.313   0.813  10.849
37321SOL    HW213971  10.211   0.923  10.831
37322SOL     OW13972  10.326   0.396  10.569
37322SOL    HW113973  10.248   0.435  10.612
37322SOL    HW213974  10.290   0.356  10.490
37323SOL     OW13975  10.347   0.691   9.742
37323SOL    HW113976  10.361   0.702   9.838
37323SOL    HW213977  10.260   0.647   9.739
37324SOL     OW13978   9.425   0.828  10.103
37324SOL    HW113979   9.502   0.826  10.162
37324SOL    HW213980   9.394   0.919  10.111
37325SOL     OW13981   9.427   1.838  10.864
37325SOL    HW113982   9.421   1.782  10.943
37325SOL    HW213983   9.336   1.842  10.834
37326SOL     OW13984  10.206   0.359   9.533
37326SOL    HW113985  10.268   0.405   9.475
37326SOL    HW213986  10.170   0.291   9.475
37327SOL     OW13987  10.679   1.155   9.883
37327SOL    HW113988  10.733   1.142   9.804
37327SOL    HW213989  10.620   1.225   9.854
37328SOL     OW13990   9.858   0.191  10.183
37328SOL    HW113991   9.885   0.211  10.274
37328SOL    HW213992   9.852   0.278  10.141
37329SOL     OW13993  10.332   1.452   9.805
37329SOL    HW113994  10.292   1.513   9.742
37329SOL    HW213995  10.314   1.497   9.888
37330SOL     OW13996   9.654   1.801  10.162
37330SOL    HW113997   9.703   1.718  10.178
37330SOL    HW213998   9.720   1.868  10.184
37331SOL     OW13999   0.000   1.034  10.171
37331SOL    HW114000  11.047   1.069  10.099
37331SOL    HW214001  11.044   1.038  10.248
37332SOL     OW14002  10.531   1.543  10.793
37332SOL    HW114003  10.534   1.473  10.860
37332SOL    HW214004  10.459   1.512  10.736
37333SOL     OW14005   9.614   0.956   9.554
37333SOL    HW114006   9.686   0.985   9.496
37333SOL    HW214007   9.601   0.864   9.525
37334SOL     OW14008  10.793   0.750  10.022
37334SOL    HW114009  10.781   0.701  10.104
37334SOL    HW214010  10.868   0.808  10.040
37335SOL     OW14011   9.778   1.272  11.039
37335SOL    HW114012   9.750   1.282  10.945
37335SOL    HW214013   9.725   1.196  11.066
37336SOL     OW14014   9.485   0.273  10.799
37336SOL    HW114015   9.413   0.320  10.844
37336SOL    HW214016   9.499   0.198  10.858
37337SOL     OW14017   9.771   1.731   9.625
37337SOL    HW114018   9.819   1.781   9.693
37337SOL    HW214019   9.843   1.693   9.572
37338SOL     OW14020  10.728   0.102   9.777
37338SOL    HW114021  10.721   0.087   9.680
37338SOL    HW214022  10.824   0.114   9.790
37339SOL     OW14023   9.551   1.789  10.540
37339SOL    HW114024   9.618   1.731  10.577
37339SOL    HW214025   9.538   1.754  10.451
37340SOL     OW14026  10.275   1.716  10.188
37340SOL    HW114027  10.357   1.665  10.193
37340SOL    HW214028  10.225   1.665  10.120
37341SOL     OW14029   9.674   0.701   9.766
37341SOL    HW114030   9.697   0.607   9.780
37341SOL    HW214031   9.580   0.702   9.793
37342SOL     OW14032   9.942   0.131   9.403
37342SOL    HW114033   9.977   0.048   9.439
37342SOL    HW214034   9.886   0.101   9.329
37343SOL     OW14035  10.061   0.285  11.037
37343SOL    HW114036  10.123   0.221  11.075
37343SOL    HW214037   9.985   0.273  11.095
37344SOL     OW14038  10.198   1.540  10.508
37344SOL    HW114039  10.184   1.510  10.416
37344SOL    HW214040  10.255   1.472  10.545
37345SOL     OW14041  10.662   0.596  10.749
37345SOL    HW114042  10.709   0.582  10.832
37345SOL    HW214043  10.686   0.690  10.729
37346SOL     OW14044  10.143   1.398  10.274
37346SOL    HW114045  10.228   1.396  10.225
37346SOL    HW214046  10.078   1.398  10.203
37347SOL     OW14047  10.253   0.533  10.213
37347SOL    HW114048  10.227   0.503  10.122
37347SOL    HW214049  10.263   0.447  10.257
37348SOL     OW14050   9.843   0.027   9.805
37348SOL    HW114051   9.756   0.022   9.849
37348SOL    HW214052   9.828   0.100   9.743
37349SOL     OW14053  10.749   1.169   9.331
37349SOL    HW114054  10.762   1.093   9.391
37349SOL    HW214055  10.673   1.214   9.369
37350SOL     OW14056   9.604   0.049   9.529
37350SOL    HW114057   9.663   0.125   9.514
37350SOL    HW214058   9.665  11.077   9.543
37351SOL     OW14059  10.269   0.247   9.788
37351SOL    HW114060  10.230   0.291   9.710
37351SOL    HW214061  10.364   0.264   9.774
37352SOL     OW14062  10.401   0.693  10.757
37352SOL    HW114063  10.332   0.628  10.777
37352SOL    HW214064  10.483   0.641  10.763
37353SOL     OW14065  10.536   1.600  10.104
37353SOL    HW114066  10.554   1.659  10.028
37353SOL    HW214067  10.618   1.608  10.154
37354SOL     OW14068   9.777   1.160  10.053
37354SOL    HW114069   9.698   1.133  10.103
37354SOL    HW214070   9.745   1.143   9.961
37355SOL     OW14071  10.600   1.816   9.914
37355SOL    HW114072  10.631   1.879   9.846
37355SOL    HW214073  10.530   1.867   9.958
37356SOL     OW14074  10.338   0.533   9.333
37356SOL    HW114075  10.294   0.615   9.302
37356SOL    HW214076  10.411   0.568   9.387
37357SOL     OW14077   9.396   0.575  10.681
37357SOL    HW114078   9.492   0.563  10.667
37357SOL    HW214079   9.395   0.631  10.762
37358SOL     OW14080   9.874   0.223  10.474
37358SOL    HW114081   9.914   0.188  10.555
37358SOL    HW214082   9.779   0.223  10.499
37359SOL     OW14083  10.185   0.432   9.972
37359SOL    HW114084  10.143   0.493   9.910
37359SOL    HW214085  10.213   0.358   9.914
37360SOL     OW14086  10.288  11.066  10.057
37360SOL    HW114087  10.291   0.028   9.984
37360SOL    HW214088  10.316   0.018  10.133
37361SOL     OW14089  10.740   1.176  10.183
37361SOL    HW114090  10.693   1.094  10.202
37361SOL    HW214091  10.731   1.181  10.086
37362SOL     OW14092  10.772   0.613  10.291
37362SOL    HW114093  10.712   0.538  10.279
37362SOL    HW214094  10.847   0.573  10.337
37363SOL     OW14095   0.004   0.820   9.685
37363SOL    HW114096   0.069   0.778   9.743
37363SOL    HW214097  11.098   0.750   9.617
37364SOL     OW14098   9.816   1.415   9.435
37364SOL    HW114099   9.735   1.409   9.487
37364SOL    HW214100   9.796   1.361   9.357
37365SOL     OW14101  10.713   0.587   9.384
37365SOL    HW114102  10.663   0.566   9.464
37365SOL    HW214103  10.803   0.559   9.407
37366SOL     OW14104   9.815   0.239   9.619
37366SOL    HW114105   9.872   0.211   9.546
37366SOL    HW214106   9.791   0.330   9.590
37367SOL     OW14107  11.036   1.237  10.879
37367SOL    HW114108   0.024   1.204  10.893
37367SOL    HW214109  11.035   1.319  10.929
37368SOL     OW14110  10.355   1.362  10.680
37368SOL    HW114111  10.276   1.315  10.712
37368SOL    HW214112  10.428   1.303  10.705
37369SOL     OW14113  10.425   1.243  10.419
37369SOL    HW114114  10.339   1.240  10.462
37369SOL    HW214115  10.404   1.274  10.329
37370SOL     OW14116  10.933   1.087  10.400
37370SOL    HW114117  10.924   1.150  10.475
37370SOL    HW214118  10.856   1.113  10.348
37371SOL     OW14119  10.215   0.107  10.700
37371SOL    HW114120  10.245   0.075  10.614
37371SOL    HW214121  10.300   0.135  10.740
37372SOL     OW14122  10.005   1.062   9.659
37372SOL    HW114123  10.009   1.054   9.756
37372SOL    HW214124  10.081   1.007   9.632
37373SOL     OW14125   9.743   0.809  10.583
37373SOL    HW114126   9.814   0.811  10.650
37373SOL    HW214127   9.712   0.716  10.592
37374SOL     OW14128  10.597   0.384  10.596
37374SOL    HW114129  10.629   0.465  10.642
37374SOL    HW214130  10.505   0.408  10.575
37375SOL     OW14131   9.387   1.564  10.645
37375SOL    HW114132   9.384   1.651  10.605
37375SOL    HW214133   9.483   1.548  10.653
37376SOL     OW14134   9.683   1.118   9.811
37376SOL    HW114135   9.728   1.171   9.745
37376SOL    HW214136   9.654   1.041   9.760
37377SOL     OW14137   9.846   0.546  10.146
37377SOL    HW114138   9.867   0.613  10.079
37377SOL    HW214139   9.913   0.565  10.215
37378SOL     OW14140  10.559   1.372   9.691
37378SOL    HW114141  10.610   1.445   9.731
37378SOL    HW214142  10.470   1.392   9.728
37379SOL     OW14143  10.591   1.467  10.463
37379SOL    HW114144  10.647   1.467  10.543
37379SOL    HW214145  10.534   1.390  10.477
37380SOL     OW14146  10.890   0.624   9.776
37380SOL    HW114147  10.837   0.666   9.845
37380SOL    HW214148  10.948   0.696   9.747
37381SOL     OW14149   9.661   1.506  10.632
37381SOL    HW114150   9.647   1.479  10.538
37381SOL    HW214151   9.757   1.525  10.632
37382SOL     OW14152   9.754   0.710  10.930
37382SOL    HW114153   9.819   0.756  10.873
37382SOL    HW214154   9.762   0.619  10.900
37383SOL     OW14155  10.914   0.769  11.014
37383SOL    HW114156  10.876   0.848  11.054
37383SOL    HW214157  10.962   0.806  10.938
37384SOL     OW14158   9.906   0.871  10.363
37384SOL    HW114159   9.930   0.964  10.350
37384SOL    HW214160   9.852   0.873  10.443
37385SOL     OW14161  10.665   0.871  10.345
37385SOL    HW114162  10.583   0.835  10.306
37385SOL    HW214163  10.720   0.791  10.346
37386SOL     OW14164  10.515   0.520   9.591
37386SOL    HW114165  10.532   0.445   9.651
37386SOL    HW214166  10.460   0.579   9.644
37387SOL     OW14167   9.608   0.212  10.543
37387SOL    HW114168   9.566   0.256  10.619
37387SOL    HW214169   9.574   0.122  10.552
37388SOL     OW14170   9.354   1.282  10.590
37388SOL    HW114171   9.387   1.229  10.666
37388SOL    HW214172   9.353   1.371  10.625
37389SOL     OW14173  10.020   0.620  10.338
37389SOL    HW114174  10.103   0.616  10.288
37389SOL    HW214175   9.993   0.714  10.333
37390SOL     OW14176   9.597   0.023   9.932
37390SOL    HW114177   9.582   0.119   9.937
37390SOL    HW214178   9.608   0.001  10.026
37391SOL     OW14179  10.956   0.396   9.647
37391SOL    HW114180  10.974   0.324   9.709
37391SOL    HW214181  10.920   0.466   9.705
37392SOL     OW14182  10.356   0.768  10.266
37392SOL    HW114183  10.342   0.782  10.361
37392SOL    HW214184  10.324   0.676  10.254
37393SOL     OW14185  10.294   1.554  10.974
37393SOL    HW114186  10.293   1.621  10.903
37393SOL    HW214187  10.259   1.478  10.927
37394SOL     OW14188   9.669   0.908  11.073
37394SOL    HW114189   9.743   0.919   0.033
37394SOL    HW214190   9.695   0.824  11.029
37395SOL     OW14191  10.832   0.254   9.425
37395SOL    HW114192  10.776   0.190   9.473
37395SOL    HW214193  10.867   0.309   9.497
37396SOL     OW14194  10.593   0.827   9.335
37396SOL    HW114195  10.648   0.748   9.351
37396SOL    HW214196  10.629   0.857   9.250
37397SOL     OW14197  10.381   1.362  10.164
37397SOL    HW114198  10.389   1.286  10.102
37397SOL    HW214199  10.444   1.427  10.129
37398SOL     OW14200   9.628   0.810  10.297
37398SOL    HW114201   9.724   0.819  10.308
37398SOL    HW214202   9.616   0.716  10.314
37399SOL     OW14203   9.648   0.530  10.316
37399SOL    HW114204   9.604   0.448  10.287
37399SOL    HW214205   9.722   0.534  10.250
37400SOL     OW14206  10.460   0.223  10.771
37400SOL    HW114207  10.445   0.293  10.835
37400SOL    HW214208  10.501   0.273  10.698
37401SOL     OW14209   9.316   1.325   9.498
37401SOL    HW114210   9.222   1.341   9.471
37401SOL    HW214211   9.311   1.234   9.532
37402SOL     OW14212   9.405   1.784  10.251
37402SOL    HW114213   9.367   1.713  10.194
37402SOL    HW214214   9.496   1.791  10.215
37403SOL     OW14215   9.802   1.588  10.245
37403SOL    HW114216   9.875   1.644  10.274
37403SOL    HW214217   9.847   1.524  10.186
37404SOL     OW14218  10.295   0.790  10.530
37404SOL    HW114219  10.355   0.759  10.600
37404SOL    HW214220  10.209   0.761  10.565
37405SOL     OW14221   9.342   0.504  10.428
37405SOL    HW114222   9.423   0.506  10.377
37405SOL    HW214223   9.372   0.530  10.518
37406SOL     OW14224  10.109   0.573   9.708
37406SOL    HW114225  10.132   0.507   9.641
37406SOL    HW214226  10.037   0.623   9.665
37407SOL     OW14227   9.545   1.540  11.025
37407SOL    HW114228   9.498   1.568   0.006
37407SOL    HW214229   9.592   1.462  11.056
37408SOL     OW14230   9.987   0.479  10.565
37408SOL    HW114231   9.950   0.397  10.528
37408SOL    HW214232   9.986   0.539  10.488
37409SOL     OW14233  10.254   1.692  10.740
37409SOL    HW114234  10.228   1.659  10.653
37409SOL    HW214235  10.244   1.789  10.733
37410SOL     OW14236   9.759   0.479   9.511
37410SOL    HW114237   9.819   0.555   9.516
37410SOL    HW214238   9.673   0.523   9.501
37411SOL     OW14239   9.464   1.145  10.787
37411SOL    HW114240   9.459   1.095  10.871
37411SOL    HW214241   9.494   1.077  10.722
37412SOL     OW14242  10.607   1.069  10.531
37412SOL    HW114243  10.631   1.004  10.462
37412SOL    HW214244  10.541   1.126  10.487
37413SOL     OW14245  10.614   0.836   9.612
37413SOL    HW114246  10.529   0.814   9.652
37413SOL    HW214247  10.589   0.855   9.519
37414SOL     OW14248  11.045   1.759  10.457
37414SOL    HW114249   0.014   1.773  10.390
37414SOL    HW214250  11.020   1.665  10.443
37415SOL     OW14251  10.565   1.731  10.434
37415SOL    HW114252  10.654   1.744  10.397
37415SOL    HW214253  10.560   1.634  10.438
37416SOL     OW14254   9.422   1.240  10.336
37416SOL    HW114255   9.401   1.249  10.431
37416SOL    HW214256   9.339   1.205  10.301
37417SOL     OW14257  11.013   0.144   9.822
37417SOL    HW114258  11.077   0.133   9.749
37417SOL    HW214259  11.039   0.074   9.883
37418SOL     OW14260  10.691   1.583   9.807
37418SOL    HW114261  10.737   1.603   9.723
37418SOL    HW214262  10.644   1.665   9.828
37419SOL     OW14263  10.578   0.921  10.004
37419SOL    HW114264  10.654   0.860  10.004
37419SOL    HW214265  10.610   0.990   9.943
37420SOL     OW14266  10.111   1.258  10.752
37420SOL    HW114267  10.083   1.301  10.835
37420SOL    HW214268  10.038   1.281  10.693
37421SOL     OW14269   9.991   1.614   9.468
37421SOL    HW114270  10.007   1.626   9.373
37421SOL    HW214271   9.934   1.534   9.467
37422SOL     OW14272   9.553   0.294  10.001
37422SOL    HW114273   9.465   0.334   9.984
37422SOL    HW214274   9.563   0.308  10.096
37423SOL     OW14275  10.558   1.615   9.312
37423SOL    HW114276  10.532   1.547   9.376
37423SOL    HW214277  10.474   1.642   9.274
37424SOL     OW14278  10.133   0.993  10.701
37424SOL    HW114279  10.173   0.999  10.614
37424SOL    HW214280  10.135   1.086  10.732
37425SOL     OW14281  10.209   0.907   9.580
37425SOL    HW114282  10.280   0.940   9.521
37425SOL    HW214283  10.252   0.834   9.626
37426SOL     OW14284  10.827   1.645   9.340
37426SOL    HW114285  10.730   1.634   9.330
37426SOL    HW214286  10.859   1.635   9.248
37427SOL     OW14287   9.685   1.288  10.796
37427SOL    HW114288   9.666   1.360  10.733
37427SOL    HW214289   9.602   1.237  10.793
37428SOL     OW14290  10.888   1.272  10.587
37428SOL    HW114291  10.960   1.273  10.651
37428SOL    HW214292  10.835   1.349  10.617
37429SOL     OW14293  10.383   1.119  10.052
37429SOL    HW114294  10.302   1.069  10.071
37429SOL    HW214295  10.448   1.048  10.039
37430SOL     OW14296  10.328   0.270  10.299
37430SOL    HW114297  10.279   0.224  10.230
37430SOL    HW214298  10.345   0.200  10.364
37431SOL     OW14299   9.919   1.458   9.808
37431SOL    HW114300   9.991   1.457   9.742
37431SOL    HW214301   9.855   1.517   9.766
37432SOL     OW14302   9.564   1.393   9.589
37432SOL    HW114303   9.468   1.381   9.583
37432SOL    HW214304   9.576   1.407   9.686
37433SOL     OW14305   9.441   1.034  11.018
37433SOL    HW114306   9.373   0.995  11.074
37433SOL    HW214307   9.523   0.989  11.048
37434SOL     OW14308   9.968   0.229  10.772
37434SOL    HW114309  10.051   0.187  10.744
37434SOL    HW214310   9.988   0.247  10.866
37435SOL     OW14311   9.374   0.354   9.344
37435SOL    HW114312   9.285   0.368   9.312
37435SOL    HW214313   9.424   0.422   9.295
37436SOL     OW14314  10.720   0.851  10.723
37436SOL    HW114315  10.668   0.915  10.671
37436SOL    HW214316  10.806   0.894  10.729
37437SOL     OW14317   9.347   0.173   9.626
37437SOL    HW114318   9.345   0.241   9.557
37437SOL    HW214319   9.435   0.135   9.613
37438SOL     OW14320  10.509   1.337   9.420
37438SOL    HW114321  10.415   1.319   9.416
37438SOL    HW214322  10.524   1.351   9.516
37439SOL     OW14323   9.945   0.810  10.760
37439SOL    HW114324  10.002   0.886  10.740
37439SOL    HW214325  10.011   0.742  10.780
37440SOL     OW14326  10.807   1.762  10.305
37440SOL    HW114327  10.837   1.790  10.218
37440SOL    HW214328  10.885   1.781  10.360
37441SOL     OW14329  10.029   0.590  11.022
37441SOL    HW114330  10.076   0.654  11.079
37441SOL    HW214331  10.054   0.504  11.059
37442SOL     OW14332   9.686   1.727  10.879
37442SOL    HW114333   9.609   1.782  10.858
37442SOL    HW214334   9.647   1.659  10.937
37443SOL     OW14335  11.012   0.871  10.527
37443SOL    HW114336  10.984   0.806  10.461
37443SOL    HW214337  10.982   0.955  10.486
37444SOL     OW14338  10.542   0.302   9.777
37444SOL    HW114339  10.607   0.230   9.777
37444SOL    HW214340  10.574   0.358   9.852
37445SOL     OW14341   9.903   0.738   9.962
37445SOL    HW114342   9.949   0.821   9.941
37445SOL    HW214343   9.824   0.744   9.905
37446SOL     OW14344  11.057   0.341  10.914
37446SOL    HW114345  11.059   0.411  10.846
37446SOL    HW214346  10.977   0.360  10.964
37447SOL     OW14347  11.010   0.914  10.800
37447SOL    HW114348  11.027   1.009  10.812
37447SOL    HW214349  11.031   0.899  10.706
37448SOL     OW14350  10.173   1.362   9.347
37448SOL    HW114351  10.148   1.380   9.439
37448SOL    HW214352  10.197   1.449   9.311
37449SOL     OW14353   9.979   1.805  10.257
37449SOL    HW114354   9.955   1.896  10.230
37449SOL    HW214355  10.066   1.792  10.216
37450SOL     OW14356  10.193   0.955  10.154
37450SOL    HW114357  10.249   0.883  10.188
37450SOL    HW214358  10.158   0.996  10.235
37451SOL     OW14359  10.404   0.990   9.417
37451SOL    HW114360  10.383   1.050   9.343
37451SOL    HW214361  10.471   0.931   9.377
37452SOL     OW14362   0.054   1.541  10.157
37452SOL    HW114363  11.083   1.518  10.097
37452SOL    HW214364   0.062   1.460  10.209
37453SOL     OW14365   9.393   1.262   9.978
37453SOL    HW114366   9.369   1.188  10.036
37453SOL    HW214367   9.479   1.233   9.945
37454SOL     OW14368   9.999   1.414  10.942
37454SOL    HW114369   9.930   1.360  10.984
37454SOL    HW214370   9.952   1.496  10.924
37455SOL     OW14371  11.083   0.186  10.587
37455SOL    HW114372  11.076   0.100  10.543
37455SOL    HW214373   0.013   0.244  10.516
37456SOL     OW14374   9.716   0.432   9.824
37456SOL    HW114375   9.758   0.361   9.775
37456SOL    HW214376   9.673   0.385   9.897
37457SOL     OW14377  10.981   1.505  10.430
37457SOL    HW114378  10.910   1.479  10.369
37457SOL    HW214379  11.002   1.423  10.476
37458SOL     OW14380   9.656   0.558  10.593
37458SOL    HW114381   9.708   0.493  10.645
37458SOL    HW214382   9.663   0.527  10.501
37459SOL     OW14383  10.139   1.592   9.990
37459SOL    HW114384  10.140   1.623   9.897
37459SOL    HW214385  10.054   1.545   9.994
37460SOL     OW14386  10.743   0.254  10.414
37460SOL    HW114387  10.770   0.172  10.457
37460SOL    HW214388  10.701   0.304  10.488
37461SOL     OW14389  10.316  11.094  10.456
37461SOL    HW114390  10.278  11.006  10.479
37461SOL    HW214391  10.412  11.074  10.453
37462SOL     OW14392  10.105   1.340   9.624
37462SOL    HW114393  10.059   1.255   9.621
37462SOL    HW214394  10.170   1.326   9.694
37463SOL     OW14395   9.918   1.556  10.598
37463SOL    HW114396   9.918   1.643  10.644
37463SOL    HW214397  10.004   1.560  10.553
37464SOL     OW14398  10.672   0.055   9.524
37464SOL    HW114399  10.687  11.099   9.447
37464SOL    HW214400  10.576   0.042   9.539
37465SOL     OW14401  10.610   0.463   9.984
37465SOL    HW114402  10.551   0.540   9.978
37465SOL    HW214403  10.602   0.436  10.077
37466SOL     OW14404  10.891   0.222  10.174
37466SOL    HW114405  10.844   0.233  10.258
37466SOL    HW214406  10.874   0.306  10.131
37467SOL     OW14407   9.350   1.063   9.615
37467SOL    HW114408   9.443   1.055   9.589
37467SOL    HW214409   9.327   0.970   9.632
37468SOL     OW14410  10.142   1.634   9.718
37468SOL    HW114411  10.117   1.628   9.624
37468SOL    HW214412  10.186   1.721   9.720
37469SOL     OW14413   9.557   2.508   0.144
37469SOL    HW114414   9.472   2.475   0.176
37469SOL    HW214415   9.560   2.480   0.052
37470SOL     OW14416   9.540   2.147   0.997
37470SOL    HW114417   9.565   2.124   1.088
37470SOL    HW214418   9.456   2.097   0.987
37471SOL     OW14419   9.308   2.270   0.617
37471SOL    HW114420   9.279   2.230   0.700
37471SOL    HW214421   9.334   2.193   0.565
37472SOL     OW14422   9.880   3.154   1.191
37472SOL    HW114423   9.790   3.155   1.156
37472SOL    HW214424   9.890   3.244   1.226
37473SOL     OW14425  10.890   3.375   0.714
37473SOL    HW114426  10.850   3.351   0.800
37473SOL    HW214427  10.816   3.364   0.652
37474SOL     OW14428  10.458   2.570   0.708
37474SOL    HW114429  10.485   2.663   0.700
37474SOL    HW214430  10.423   2.567   0.798
37475SOL     OW14431  11.091   2.477   0.218
37475SOL    HW114432  11.035   2.490   0.141
37475SOL    HW214433  11.054   2.397   0.258
37476SOL     OW14434  10.032   3.017   1.013
37476SOL    HW114435   9.980   3.063   1.082
37476SOL    HW214436  10.076   3.094   0.972
37477SOL     OW14437  10.168   2.639   1.810
37477SOL    HW114438  10.169   2.714   1.872
37477SOL    HW214439  10.197   2.680   1.726
37478SOL     OW14440   9.999   2.877   0.637
37478SOL    HW114441  10.065   2.858   0.706
37478SOL    HW214442   9.931   2.927   0.686
37479SOL     OW14443  10.021   3.027   1.806
37479SOL    HW114444  10.072   3.108   1.831
37479SOL    HW214445   9.939   3.064   1.772
37480SOL     OW14446   9.633   3.289   1.075
37480SOL    HW114447   9.561   3.245   1.027
37480SOL    HW214448   9.680   3.340   1.006
37481SOL     OW14449  10.762   3.371   1.382
37481SOL    HW114450  10.807   3.450   1.415
37481SOL    HW214451  10.684   3.370   1.441
37482SOL     OW14452   9.757   2.278   1.511
37482SOL    HW114453   9.842   2.233   1.515
37482SOL    HW214454   9.693   2.205   1.513
37483SOL     OW14455   9.537   3.580   0.494
37483SOL    HW114456   9.574   3.663   0.531
37483SOL    HW214457   9.579   3.576   0.407
37484SOL     OW14458  10.445   3.217   1.686
37484SOL    HW114459  10.486   3.203   1.772
37484SOL    HW214460  10.392   3.136   1.677
37485SOL     OW14461   9.556   3.285   0.525
37485SOL    HW114462   9.555   3.381   0.543
37485SOL    HW214463   9.487   3.253   0.586
37486SOL     OW14464   9.569   2.955   0.896
37486SOL    HW114465   9.571   2.876   0.952
37486SOL    HW214466   9.520   3.017   0.953
37487SOL     OW14467   9.908   3.656   1.412
37487SOL    HW114468   9.833   3.631   1.469
37487SOL    HW214469   9.928   3.747   1.444
37488SOL     OW14470   9.884   2.853   0.152
37488SOL    HW114471   9.931   2.907   0.088
37488SOL    HW214472   9.926   2.881   0.236
37489SOL     OW14473  10.952   1.945   1.500
37489SOL    HW114474  10.925   2.004   1.429
37489SOL    HW214475  10.923   1.992   1.580
37490SOL     OW14476   9.415   2.531   0.560
37490SOL    HW114477   9.385   2.442   0.583
37490SOL    HW214478   9.414   2.578   0.646
37491SOL     OW14479   9.386   3.476   0.124
37491SOL    HW114480   9.361   3.387   0.153
37491SOL    HW214481   9.354   3.530   0.199
37492SOL     OW14482  10.987   2.809   0.634
37492SOL    HW114483  11.064   2.752   0.646
37492SOL    HW214484  11.025   2.883   0.586
37493SOL     OW14485   9.427   2.596   1.567
37493SOL    HW114486   9.519   2.626   1.567
37493SOL    HW214487   9.382   2.672   1.605
37494SOL     OW14488   9.898   3.269   0.741
37494SOL    HW114489   9.866   3.177   0.748
37494SOL    HW214490   9.889   3.285   0.645
37495SOL     OW14491  10.594   3.089   1.436
37495SOL    HW114492  10.619   3.021   1.371
37495SOL    HW214493  10.665   3.082   1.503
37496SOL     OW14494  10.152   1.881   0.453
37496SOL    HW114495  10.180   1.973   0.467
37496SOL    HW214496  10.057   1.885   0.476
37497SOL     OW14497   9.484   2.838   1.264
37497SOL    HW114498   9.574   2.811   1.241
37497SOL    HW214499   9.430   2.773   1.216
37498SOL     OW14500  10.859   2.878   0.219
37498SOL    HW114501  10.787   2.816   0.239
37498SOL    HW214502  10.921   2.861   0.291
37499SOL     OW14503  10.487   3.668   1.621
37499SOL    HW114504  10.510   3.742   1.563
37499SOL    HW214505  10.513   3.591   1.567
37500SOL     OW14506   9.647   2.100   1.808
37500SOL    HW114507   9.720   2.160   1.828
37500SOL    HW214508   9.572   2.144   1.851
37501SOL     OW14509  10.761   3.291   0.945
37501SOL    HW114510  10.705   3.314   1.022
37501SOL    HW214511  10.738   3.196   0.933
37502SOL     OW14512  10.985   3.588   0.588
37502SOL    HW114513  10.939   3.552   0.511
37502SOL    HW214514  10.970   3.517   0.653
37503SOL     OW14515   9.895   2.581   0.274
37503SOL    HW114516   9.900   2.669   0.234
37503SOL    HW214517   9.828   2.592   0.344
37504SOL     OW14518  10.571   2.213   0.907
37504SOL    HW114519  10.483   2.177   0.928
37504SOL    HW214520  10.625   2.171   0.976
37505SOL     OW14521  10.871   3.509   0.334
37505SOL    HW114522  10.963   3.533   0.318
37505SOL    HW214523  10.837   3.509   0.242
37506SOL     OW14524  10.111   2.486   1.461
37506SOL    HW114525  10.081   2.456   1.550
37506SOL    HW214526  10.061   2.427   1.402
37507SOL     OW14527  10.708   2.343   1.679
37507SOL    HW114528  10.696   2.399   1.757
37507SOL    HW214529  10.756   2.265   1.713
37508SOL     OW14530  10.266   2.744   1.582
37508SOL    HW114531  10.303   2.662   1.543
37508SOL    HW214532  10.220   2.783   1.505
37509SOL     OW14533  10.326   2.258   1.250
37509SOL    HW114534  10.242   2.277   1.295
37509SOL    HW214535  10.297   2.215   1.168
37510SOL     OW14536  10.358   2.545   0.420
37510SOL    HW114537  10.376   2.554   0.516
37510SOL    HW214538  10.270   2.501   0.419
37511SOL     OW14539   9.405   2.685   0.784
37511SOL    HW114540   9.478   2.677   0.848
37511SOL    HW214541   9.365   2.769   0.812
37512SOL     OW14542   9.420   3.701   1.566
37512SOL    HW114543   9.435   3.687   1.662
37512SOL    HW214544   9.325   3.692   1.558
37513SOL     OW14545  10.196   2.230   0.214
37513SOL    HW114546  10.239   2.281   0.142
37513SOL    HW214547  10.208   2.138   0.184
37514SOL     OW14548  11.021   2.452   1.831
37514SOL    HW114549  10.983   2.525   1.777
37514SOL    HW214550  11.054   2.394   1.760
37515SOL     OW14551  10.682   3.031   0.556
37515SOL    HW114552  10.752   3.018   0.492
37515SOL    HW214553  10.627   3.096   0.510
37516SOL     OW14554   9.860   2.070   0.901
37516SOL    HW114555   9.869   2.081   0.997
37516SOL    HW214556   9.858   2.161   0.868
37517SOL     OW14557  10.319   3.299   0.488
37517SOL    HW114558  10.286   3.374   0.434
37517SOL    HW214559  10.307   3.333   0.578
37518SOL     OW14560   9.653   3.671   0.857
37518SOL    HW114561   9.704   3.588   0.866
37518SOL    HW214562   9.719   3.737   0.882
37519SOL     OW14563  11.089   2.889   0.897
37519SOL    HW114564  11.032   2.911   0.822
37519SOL    HW214565  11.028   2.889   0.973
37520SOL     OW14566  10.527   3.405   1.507
37520SOL    HW114567  10.514   3.333   1.572
37520SOL    HW214568  10.474   3.373   1.433
37521SOL     OW14569   9.637   2.833   0.272
37521SOL    HW114570   9.721   2.841   0.225
37521SOL    HW214571   9.611   2.742   0.254
37522SOL     OW14572  10.787   2.614   0.698
37522SOL    HW114573  10.774   2.580   0.788
37522SOL    HW214574  10.857   2.679   0.707
37523SOL     OW14575   9.773   3.137   1.723
37523SOL    HW114576   9.733   3.135   1.633
37523SOL    HW214577   9.693   3.146   1.777
37524SOL     OW14578  10.396   3.626   0.208
37524SOL    HW114579  10.346   3.573   0.272
37524SOL    HW214580  10.440   3.559   0.153
37525SOL     OW14581   9.475   2.148   1.499
37525SOL    HW114582   9.393   2.182   1.539
37525SOL    HW214583   9.484   2.063   1.544
37526SOL     OW14584   9.771   3.607   0.306
37526SOL    HW114585   9.805   3.651   0.386
37526SOL    HW214586   9.849   3.610   0.249
37527SOL     OW14587  10.740   1.982   0.456
37527SOL    HW114588  10.721   1.951   0.365
37527SOL    HW214589  10.837   1.975   0.462
37528SOL     OW14590   9.561   3.659   1.233
37528SOL    HW114591   9.617   3.593   1.277
37528SOL    HW214592   9.552   3.624   1.144
37529SOL     OW14593  10.273   3.567   0.879
37529SOL    HW114594  10.357   3.522   0.894
37529SOL    HW214595  10.231   3.510   0.812
37530SOL     OW14596   9.681   2.551   0.457
37530SOL    HW114597   9.697   2.455   0.469
37530SOL    HW214598   9.590   2.560   0.490
37531SOL     OW14599  10.846   2.088   1.736
37531SOL    HW114600  10.833   2.101   1.833
37531SOL    HW214601  10.781   2.018   1.718
37532SOL     OW14602   9.941   1.961   0.107
37532SOL    HW114603  10.035   1.949   0.129
37532SOL    HW214604   9.937   1.942   0.012
37533SOL     OW14605  10.185   3.414   1.189
37533SOL    HW114606  10.176   3.377   1.100
37533SOL    HW214607  10.243   3.350   1.233
37534SOL     OW14608  10.636   2.454   1.430
37534SOL    HW114609  10.674   2.419   1.512
37534SOL    HW214610  10.670   2.545   1.426
37535SOL     OW14611  10.124   3.265   0.930
37535SOL    HW114612  10.212   3.253   0.889
37535SOL    HW214613  10.066   3.275   0.853
37536SOL     OW14614  10.236   2.368   0.896
37536SOL    HW114615  10.216   2.350   0.801
37536SOL    HW214616  10.265   2.281   0.927
37537SOL     OW14617   9.884   1.908   0.490
37537SOL    HW114618   9.809   1.918   0.551
37537SOL    HW214619   9.873   1.988   0.435
37538SOL     OW14620  10.746   3.038   0.005
37538SOL    HW114621  10.773   2.977   0.076
37538SOL    HW214622  10.685   3.096   0.051
37539SOL     OW14623   9.589   1.934   0.226
37539SOL    HW114624   9.616   1.979   0.144
37539SOL    HW214625   9.660   1.867   0.235
37540SOL     OW14626  10.257   2.131   0.463
37540SOL    HW114627  10.243   2.174   0.377
37540SOL    HW214628  10.353   2.139   0.474
37541SOL     OW14629  10.379   2.528   1.468
37541SOL    HW114630  10.314   2.457   1.474
37541SOL    HW214631  10.464   2.481   1.472
37542SOL     OW14632  10.552   3.443   0.789
37542SOL    HW114633  10.569   3.519   0.730
37542SOL    HW214634  10.636   3.434   0.835
37543SOL     OW14635   9.792   3.023   0.738
37543SOL    HW114636   9.721   2.996   0.798
37543SOL    HW214637   9.750   3.003   0.651
37544SOL     OW14638  10.599   3.676   0.627
37544SOL    HW114639  10.650   3.733   0.566
37544SOL    HW214640  10.559   3.741   0.687
37545SOL     OW14641  10.311   2.385   0.028
37545SOL    HW114642  10.267   2.472   0.021
37545SOL    HW214643  10.398   2.410   0.061
37546SOL     OW14644   9.350   2.426   1.378
37546SOL    HW114645   9.445   2.411   1.367
37546SOL    HW214646   9.351   2.498   1.443
37547SOL     OW14647   9.876   2.105   1.178
37547SOL    HW114648   9.923   2.041   1.233
37547SOL    HW214649   9.783   2.090   1.206
37548SOL     OW14650  10.197   2.320   0.641
37548SOL    HW114651  10.146   2.374   0.578
37548SOL    HW214652  10.214   2.241   0.586
37549SOL     OW14653  10.344   1.925   0.786
37549SOL    HW114654  10.309   1.923   0.696
37549SOL    HW214655  10.317   1.839   0.822
37550SOL     OW14656  10.730   3.027   0.893
37550SOL    HW114657  10.697   2.937   0.907
37550SOL    HW214658  10.718   3.038   0.798
37551SOL     OW14659  10.771   2.453   1.018
37551SOL    HW114660  10.721   2.370   1.011
37551SOL    HW214661  10.862   2.422   1.028
37552SOL     OW14662   0.010   2.702   0.375
37552SOL    HW114663   0.053   2.651   0.447
37552SOL    HW214664   0.015   2.636   0.304
37553SOL     OW14665   9.810   3.299   0.142
37553SOL    HW114666   9.732   3.276   0.196
37553SOL    HW214667   9.807   3.232   0.071
37554SOL     OW14668  10.698   2.462   0.082
37554SOL    HW114669  10.649   2.435   0.163
37554SOL    HW214670  10.745   2.381   0.061
37555SOL     OW14671   9.837   2.100   0.318
37555SOL    HW114672   9.860   2.046   0.240
37555SOL    HW214673   9.814   2.185   0.275
37556SOL     OW14674  11.029   3.088   1.593
37556SOL    HW114675   0.021   3.063   1.587
37556SOL    HW214676  11.031   3.184   1.580
37557SOL     OW14677  10.379   3.222   1.340
37557SOL    HW114678  10.301   3.190   1.388
37557SOL    HW214679  10.451   3.171   1.384
37558SOL     OW14680  10.902   3.488   1.634
37558SOL    HW114681  10.905   3.581   1.601
37558SOL    HW214682  10.995   3.469   1.650
37559SOL     OW14683  10.445   3.079   1.097
37559SOL    HW114684  10.373   3.106   1.156
37559SOL    HW214685  10.422   3.121   1.013
37560SOL     OW14686  10.915   2.958   1.099
37560SOL    HW114687  10.903   3.020   1.174
37560SOL    HW214688  10.852   2.995   1.036
37561SOL     OW14689  10.227   1.963   1.406
37561SOL    HW114690  10.255   1.941   1.315
37561SOL    HW214691  10.307   2.007   1.440
37562SOL     OW14692  10.311   2.981   1.732
37562SOL    HW114693  10.220   3.004   1.756
37562SOL    HW214694  10.300   2.902   1.677
37563SOL     OW14695  10.031   2.927   0.372
37563SOL    HW114696  10.022   2.913   0.468
37563SOL    HW214697  10.101   2.862   0.348
37564SOL     OW14698   9.729   2.676   1.257
37564SOL    HW114699   9.800   2.669   1.325
37564SOL    HW214700   9.684   2.590   1.266
37565SOL     OW14701  10.601   2.243   1.269
37565SOL    HW114702  10.622   2.323   1.322
37565SOL    HW214703  10.504   2.253   1.257
37566SOL     OW14704   9.383   3.426   1.343
37566SOL    HW114705   9.381   3.518   1.312
37566SOL    HW214706   9.479   3.407   1.345
37567SOL     OW14707   9.675   2.973   0.503
37567SOL    HW114708   9.680   3.050   0.445
37567SOL    HW214709   9.660   2.902   0.438
37568SOL     OW14710   9.843   2.393   0.856
37568SOL    HW114711   9.874   2.460   0.791
37568SOL    HW214712   9.908   2.405   0.927
37569SOL     OW14713  10.552   3.220   0.388
37569SOL    HW114714  10.601   3.295   0.425
37569SOL    HW214715  10.463   3.236   0.425
37570SOL     OW14716  10.613   3.340   1.162
37570SOL    HW114717  10.677   3.342   1.237
37570SOL    HW214718  10.550   3.272   1.190
37571SOL     OW14719  10.891   2.495   0.457
37571SOL    HW114720  10.840   2.536   0.530
37571SOL    HW214721  10.930   2.571   0.413
37572SOL     OW14722   9.643   3.361   1.328
37572SOL    HW114723   9.636   3.331   1.235
37572SOL    HW214724   9.738   3.385   1.329
37573SOL     OW14725   9.746   2.599   1.638
37573SOL    HW114726   9.798   2.640   1.566
37573SOL    HW214727   9.788   2.511   1.641
37574SOL     OW14728  10.926   2.631   1.662
37574SOL    HW114729  10.838   2.674   1.670
37574SOL    HW214730  10.972   2.692   1.602
37575SOL     OW14731  10.353   1.932   1.788
37575SOL    HW114732  10.302   2.005   1.750
37575SOL    HW214733  10.406   1.900   1.713
37576SOL     OW14734   9.810   1.870   1.752
37576SOL    HW114735   9.766   1.818   1.683
37576SOL    HW214736   9.753   1.949   1.757
37577SOL     OW14737   9.860   2.771   1.011
37577SOL    HW114738   9.910   2.854   1.015
37577SOL    HW214739   9.841   2.752   1.104
37578SOL     OW14740  10.697   2.721   1.026
37578SOL    HW114741  10.607   2.695   1.006
37578SOL    HW214742  10.740   2.634   1.038
37579SOL     OW14743  10.538   2.373   0.287
37579SOL    HW114744  10.540   2.296   0.347
37579SOL    HW214745  10.478   2.433   0.333
37580SOL     OW14746   9.616   2.071   1.246
37580SOL    HW114747   9.571   2.095   1.329
37580SOL    HW214748   9.594   1.975   1.240
37581SOL     OW14749   9.334   3.164   1.288
37581SOL    HW114750   9.369   3.104   1.356
37581SOL    HW214751   9.353   3.253   1.322
37582SOL     OW14752  10.030   2.506   1.030
37582SOL    HW114753  10.106   2.482   0.974
37582SOL    HW214754  10.002   2.593   0.997
37583SOL     OW14755   9.640   1.935   0.609
37583SOL    HW114756   9.604   2.020   0.640
37583SOL    HW214757   9.634   1.881   0.690
37584SOL     OW14758  10.917   2.257   0.318
37584SOL    HW114759  10.938   2.189   0.383
37584SOL    HW214760  10.894   2.333   0.375
37585SOL     OW14761  10.362   2.593   0.972
37585SOL    HW114762  10.346   2.601   1.069
37585SOL    HW214763  10.320   2.507   0.951
37586SOL     OW14764  10.291   3.433   1.720
37586SOL    HW114765  10.291   3.484   1.636
37586SOL    HW214766  10.342   3.353   1.695
37587SOL     OW14767   9.664   2.763   1.829
37587SOL    HW114768   9.748   2.810   1.837
37587SOL    HW214769   9.684   2.699   1.756
37588SOL     OW14770  10.882   2.163   0.075
37588SOL    HW114771  10.807   2.104   0.080
37588SOL    HW214772  10.890   2.193   0.169
37589SOL     OW14773  10.610   2.706   0.010
37589SOL    HW114774  10.652   2.623   0.042
37589SOL    HW214775  10.622   2.701  11.016
37590SOL     OW14776  10.383   3.223   0.850
37590SOL    HW114777  10.393   3.148   0.788
37590SOL    HW214778  10.449   3.288   0.819
37591SOL     OW14779   9.584   2.683   0.996
37591SOL    HW114780   9.677   2.708   0.982
37591SOL    HW214781   9.593   2.588   1.018
37592SOL     OW14782   9.623   2.402   1.005
37592SOL    HW114783   9.602   2.307   0.999
37592SOL    HW214784   9.698   2.408   0.942
37593SOL     OW14785  10.447   2.247   1.654
37593SOL    HW114786  10.395   2.273   1.732
37593SOL    HW214787  10.535   2.285   1.673
37594SOL     OW14788  10.468   2.056   1.467
37594SOL    HW114789  10.457   2.123   1.537
37594SOL    HW214790  10.516   2.106   1.400
37595SOL     OW14791   9.304   3.210   0.222
37595SOL    HW114792   9.218   3.215   0.174
37595SOL    HW214793   9.315   3.113   0.227
37596SOL     OW14794   9.401   3.638   0.938
37596SOL    HW114795   9.374   3.566   0.877
37596SOL    HW214796   9.494   3.653   0.910
37597SOL     OW14797   9.788   3.434   0.914
37597SOL    HW114798   9.864   3.493   0.930
37597SOL    HW214799   9.825   3.370   0.850
37598SOL     OW14800  10.299   2.631   1.229
37598SOL    HW114801  10.344   2.600   1.310
37598SOL    HW214802  10.208   2.608   1.250
37599SOL     OW14803   9.343   2.389   1.104
37599SOL    HW114804   9.428   2.373   1.061
37599SOL    HW214805   9.369   2.402   1.197
37600SOL     OW14806   9.525   2.379   1.713
37600SOL    HW114807   9.577   2.327   1.649
37600SOL    HW214808   9.480   2.444   1.656
37601SOL     OW14809  10.710   2.793   1.663
37601SOL    HW114810  10.713   2.889   1.671
37601SOL    HW214811  10.683   2.779   1.571
37602SOL     OW14812  10.112   2.427   0.385
37602SOL    HW114813  10.130   2.357   0.319
37602SOL    HW214814  10.041   2.478   0.342
37603SOL     OW14815   9.564   3.410   1.717
37603SOL    HW114816   9.556   3.475   1.788
37603SOL    HW214817   9.576   3.327   1.766
37604SOL     OW14818  10.005   2.342   1.258
37604SOL    HW114819   9.954   2.265   1.229
37604SOL    HW214820  10.002   2.402   1.182
37605SOL     OW14821  10.246   3.562   1.483
37605SOL    HW114822  10.214   3.539   1.395
37605SOL    HW214823  10.251   3.659   1.480
37606SOL     OW14824   9.774   2.342   0.199
37606SOL    HW114825   9.839   2.413   0.206
37606SOL    HW214826   9.692   2.393   0.197
37607SOL     OW14827   9.426   2.994   1.473
37607SOL    HW114828   9.430   2.934   1.552
37607SOL    HW214829   9.444   2.931   1.400
37608SOL     OW14830  10.611   2.909   1.220
37608SOL    HW114831  10.641   2.855   1.145
37608SOL    HW214832  10.554   2.976   1.177
37609SOL     OW14833  10.629   2.732   0.298
37609SOL    HW114834  10.556   2.691   0.346
37609SOL    HW214835  10.596   2.733   0.207
37610SOL     OW14836  11.017   3.617   1.114
37610SOL    HW114837  11.099   3.631   1.063
37610SOL    HW214838  11.012   3.519   1.117
37611SOL     OW14839  10.553   3.589   1.080
37611SOL    HW114840  10.639   3.604   1.035
37611SOL    HW214841  10.565   3.500   1.117
37612SOL     OW14842   9.409   3.115   1.038
37612SOL    HW114843   9.373   3.135   1.127
37612SOL    HW214844   9.335   3.069   0.996
37613SOL     OW14845  10.004   3.505   1.747
37613SOL    HW114846   9.968   3.591   1.725
37613SOL    HW214847  10.098   3.514   1.723
37614SOL     OW14848  10.221   1.973   0.141
37614SOL    HW114849  10.279   1.941   0.071
37614SOL    HW214850  10.246   1.911   0.212
37615SOL     OW14851  11.027   1.999   0.532
37615SOL    HW114852  11.087   1.998   0.454
37615SOL    HW214853  11.031   1.906   0.563
37616SOL     OW14854  10.685   3.433   0.518
37616SOL    HW114855  10.752   3.452   0.450
37616SOL    HW214856  10.643   3.519   0.531
37617SOL     OW14857   9.460   3.668   1.829
37617SOL    HW114858   9.422   3.594   1.880
37617SOL    HW214859   9.509   3.715   1.898
37618SOL     OW14860  10.574   2.810   0.670
37618SOL    HW114861  10.646   2.745   0.661
37618SOL    HW214862  10.611   2.886   0.620
37619SOL     OW14863  10.105   3.109   1.437
37619SOL    HW114864  10.078   3.161   1.515
37619SOL    HW214865  10.037   3.133   1.373
37620SOL     OW14866  10.006   3.482   0.167
37620SOL    HW114867  10.005   3.490   0.072
37620SOL    HW214868   9.940   3.411   0.180
37621SOL     OW14869   9.562   2.178   0.707
37621SOL    HW114870   9.500   2.251   0.693
37621SOL    HW214871   9.580   2.183   0.802
37622SOL     OW14872  10.543   3.473   0.026
37622SOL    HW114873  10.531   3.379   0.049
37622SOL    HW214874  10.471   3.489  11.064
37623SOL     OW14875  10.139   2.855   1.375
37623SOL    HW114876  10.187   2.867   1.293
37623SOL    HW214877  10.134   2.947   1.410
37624SOL     OW14878  10.219   2.770   0.265
37624SOL    HW114879  10.291   2.807   0.211
37624SOL    HW214880  10.262   2.694   0.308
37625SOL     OW14881  10.813   3.499   0.074
37625SOL    HW114882  10.716   3.491   0.059
37625SOL    HW214883  10.849   3.474  11.090
37626SOL     OW14884   9.653   3.136   1.489
37626SOL    HW114885   9.641   3.208   1.425
37626SOL    HW214886   9.571   3.084   1.480
37627SOL     OW14887  10.873   3.155   1.280
37627SOL    HW114888  10.964   3.152   1.315
37627SOL    HW214889  10.833   3.231   1.327
37628SOL     OW14890  10.359   2.981   0.723
37628SOL    HW114891  10.288   2.924   0.756
37628SOL    HW214892  10.425   2.917   0.693
37629SOL     OW14893  10.335   2.093   0.990
37629SOL    HW114894  10.324   2.043   0.906
37629SOL    HW214895  10.349   2.019   1.052
37630SOL     OW14896   9.920   3.340   0.482
37630SOL    HW114897   9.978   3.300   0.414
37630SOL    HW214898   9.850   3.379   0.429
37631SOL     OW14899   9.563   3.229   0.268
37631SOL    HW114900   9.467   3.229   0.247
37631SOL    HW214901   9.560   3.255   0.363
37632SOL     OW14902   9.437   2.855   1.695
37632SOL    HW114903   9.362   2.844   1.757
37632SOL    HW214904   9.514   2.833   1.751
37633SOL     OW14905   9.979   2.041   1.486
37633SOL    HW114906  10.068   2.009   1.463
37633SOL    HW214907   9.998   2.079   1.575
37634SOL     OW14908   9.410   2.235   0.029
37634SOL    HW114909   9.338   2.185  11.087
37634SOL    HW214910   9.406   2.318  11.083
37635SOL     OW14911  10.718   2.722   1.393
37635SOL    HW114912  10.669   2.779   1.331
37635SOL    HW214913  10.810   2.737   1.366
37636SOL     OW14914   9.359   2.035   0.327
37636SOL    HW114915   9.360   2.114   0.271
37636SOL    HW214916   9.447   1.998   0.308
37637SOL     OW14917  10.504   3.216   0.108
37637SOL    HW114918  10.408   3.204   0.096
37637SOL    HW214919  10.516   3.197   0.203
37638SOL     OW14920   9.927   2.675   1.434
37638SOL    HW114921   9.986   2.751   1.416
37638SOL    HW214922   9.994   2.606   1.449
37639SOL     OW14923  10.797   3.621   0.948
37639SOL    HW114924  10.835   3.669   0.873
37639SOL    HW214925  10.870   3.626   1.013
37640SOL     OW14926   9.994   2.442   1.691
37640SOL    HW114927  10.052   2.489   1.752
37640SOL    HW214928  10.011   2.348   1.715
37641SOL     OW14929  10.773   3.060   1.629
37641SOL    HW114930  10.764   3.063   1.727
37641SOL    HW214931  10.870   3.067   1.619
37642SOL     OW14932   9.681   3.593   1.551
37642SOL    HW114933   9.594   3.636   1.536
37642SOL    HW214934   9.653   3.510   1.595
37643SOL     OW14935  10.986   2.727   1.230
37643SOL    HW114936  10.995   2.654   1.167
37643SOL    HW214937  10.956   2.802   1.174
37644SOL     OW14938  10.529   2.174   0.476
37644SOL    HW114939  10.589   2.098   0.465
37644SOL    HW214940  10.577   2.228   0.542
37645SOL     OW14941   9.896   2.604   0.679
37645SOL    HW114942   9.935   2.690   0.657
37645SOL    HW214943   9.832   2.590   0.608
37646SOL     OW14944  11.064   2.241   1.640
37646SOL    HW114945  11.022   2.290   1.569
37646SOL    HW214946  10.993   2.185   1.675
37647SOL     OW14947  11.054   2.787   1.486
37647SOL    HW114948  11.041   2.882   1.491
37647SOL    HW214949  11.037   2.764   1.393
37648SOL     OW14950  10.225   3.224   0.049
37648SOL    HW114951  10.156   3.225   0.117
37648SOL    HW214952  10.224   3.316   0.016
37649SOL     OW14953   9.953   3.657   0.919
37649SOL    HW114954   9.936   3.750   0.898
37649SOL    HW214955  10.047   3.656   0.939
37650SOL     OW14956  10.189   2.808   0.845
37650SOL    HW114957  10.241   2.740   0.890
37650SOL    HW214958  10.163   2.867   0.918
37651SOL     OW14959  10.403   2.852   0.098
37651SOL    HW114960  10.386   2.923   0.035
37651SOL    HW214961  10.480   2.807   0.058
37652SOL     OW14962   0.058   3.415   0.832
37652SOL    HW114963  11.073   3.399   0.791
37652SOL    HW214964   0.061   3.345   0.899
37653SOL     OW14965   9.549   3.186   1.862
37653SOL    HW114966   9.473   3.137   1.829
37653SOL    HW214967   9.531   3.190   1.957
37654SOL     OW14968   9.411   3.100   0.659
37654SOL    HW114969   9.433   3.053   0.741
37654SOL    HW214970   9.484   3.073   0.601
37655SOL     OW14971   9.986   3.265   1.621
37655SOL    HW114972   9.906   3.219   1.653
37655SOL    HW214973   9.978   3.353   1.662
37656SOL     OW14974   0.009   2.036   1.208
37656SOL    HW114975   0.013   1.954   1.258
37656SOL    HW214976  11.092   2.003   1.120
37657SOL     OW14977   9.736   2.287   0.514
37657SOL    HW114978   9.774   2.220   0.456
37657SOL    HW214979   9.699   2.236   0.587
37658SOL     OW14980  10.992   3.351   1.088
37658SOL    HW114981  10.913   3.314   1.046
37658SOL    HW214982  11.007   3.292   1.163
37659SOL     OW14983   9.621   2.404   1.294
37659SOL    HW114984   9.682   2.360   1.356
37659SOL    HW214985   9.652   2.373   1.207
37660SOL     OW14986  10.134   3.444   0.670
37660SOL    HW114987  10.121   3.461   0.576
37660SOL    HW214988  10.046   3.415   0.697
37661SOL     OW14989  10.728   2.102   1.089
37661SOL    HW114990  10.761   2.025   1.137
37661SOL    HW214991  10.687   2.154   1.162
37662SOL     OW14992  10.331   1.867   1.155
37662SOL    HW114993  10.275   1.792   1.132
37662SOL    HW214994  10.421   1.828   1.143
37663SOL     OW14995  10.091   3.201   0.316
37663SOL    HW114996  10.057   3.110   0.324
37663SOL    HW214997  10.177   3.194   0.360
37664SOL     OW14998   9.904   3.422   1.266
37664SOL    HW114999   9.908   3.504   1.318
37664SOL    HW215000   9.994   3.422   1.228
37665SOL     OW15001  10.632   1.905   0.216
37665SOL    HW115002  10.667   1.856   0.140
37665SOL    HW215003  10.544   1.863   0.227
37666SOL     OW15004  10.634   2.345   0.672
37666SOL    HW115005  10.566   2.415   0.675
37666SOL    HW215006  10.628   2.306   0.761
37667SOL     OW15007  10.907   2.040   0.891
37667SOL    HW115008  10.836   2.060   0.953
37667SOL    HW215009  10.889   2.100   0.818
37668SOL     OW15010   9.356   2.953   0.279
37668SOL    HW115011   9.453   2.955   0.288
37668SOL    HW215012   9.337   2.859   0.298
37669SOL     OW15013  10.205   3.505   0.365
37669SOL    HW115014  10.127   3.484   0.309
37669SOL    HW215015  10.181   3.594   0.401
37670SOL     OW15016   9.541   2.499   1.994
37670SOL    HW115017   9.454   2.466   2.022
37670SOL    HW215018   9.548   2.466   1.903
37671SOL     OW15019   9.538   2.145   2.863
37671SOL    HW115020   9.562   2.115   2.953
37671SOL    HW215021   9.450   2.104   2.851
37672SOL     OW15022   9.311   2.270   2.487
37672SOL    HW115023   9.229   2.290   2.537
37672SOL    HW215024   9.285   2.188   2.443
37673SOL     OW15025   9.880   3.146   3.052
37673SOL    HW115026   9.784   3.138   3.042
37673SOL    HW215027   9.891   3.237   3.085
37674SOL     OW15028  10.880   3.389   2.578
37674SOL    HW115029  10.845   3.352   2.660
37674SOL    HW215030  10.810   3.373   2.513
37675SOL     OW15031  10.458   2.553   2.570
37675SOL    HW115032  10.497   2.640   2.555
37675SOL    HW215033  10.427   2.563   2.662
37676SOL     OW15034  11.084   2.459   2.093
37676SOL    HW115035  11.056   2.457   2.000
37676SOL    HW215036  11.042   2.380   2.129
37677SOL     OW15037  10.043   3.016   2.877
37677SOL    HW115038   9.984   3.060   2.942
37677SOL    HW215039  10.090   3.093   2.841
37678SOL     OW15040  10.182   2.706   3.704
37678SOL    HW115041  10.094   2.746   3.699
37678SOL    HW215042  10.212   2.711   3.611
37679SOL     OW15043   9.995   2.899   2.520
37679SOL    HW115044  10.063   2.866   2.583
37679SOL    HW215045   9.935   2.947   2.579
37680SOL     OW15046  10.020   3.024   3.663
37680SOL    HW115047  10.071   3.105   3.683
37680SOL    HW215048   9.936   3.062   3.628
37681SOL     OW15049   9.624   3.299   2.940
37681SOL    HW115050   9.557   3.244   2.896
37681SOL    HW215051   9.675   3.340   2.867
37682SOL     OW15052  10.763   3.363   3.255
37682SOL    HW115053  10.789   3.455   3.257
37682SOL    HW215054  10.684   3.364   3.312
37683SOL     OW15055   9.740   2.251   3.405
37683SOL    HW115056   9.815   2.195   3.381
37683SOL    HW215057   9.663   2.202   3.370
37684SOL     OW15058   9.530   3.586   2.338
37684SOL    HW115059   9.569   3.660   2.390
37684SOL    HW215060   9.597   3.575   2.268
37685SOL     OW15061  10.439   3.199   3.537
37685SOL    HW115062  10.483   3.195   3.623
37685SOL    HW215063  10.387   3.116   3.539
37686SOL     OW15064   9.558   3.291   2.388
37686SOL    HW115065   9.564   3.386   2.406
37686SOL    HW215066   9.488   3.261   2.448
37687SOL     OW15067   9.564   2.949   2.767
37687SOL    HW115068   9.563   2.873   2.827
37687SOL    HW215069   9.516   3.016   2.818
37688SOL     OW15070   9.919   3.647   3.277
37688SOL    HW115071   9.835   3.623   3.320
37688SOL    HW215072   9.933   3.739   3.306
37689SOL     OW15073   9.887   2.856   1.985
37689SOL    HW115074   9.939   2.901   1.916
37689SOL    HW215075   9.925   2.896   2.066
37690SOL     OW15076  10.970   1.960   3.369
37690SOL    HW115077  10.927   2.008   3.297
37690SOL    HW215078  10.930   2.000   3.448
37691SOL     OW15079   9.423   2.513   2.420
37691SOL    HW115080   9.391   2.422   2.439
37691SOL    HW215081   9.414   2.556   2.508
37692SOL     OW15082   9.371   3.466   1.983
37692SOL    HW115083   9.359   3.370   1.991
37692SOL    HW215084   9.311   3.499   2.052
37693SOL     OW15085  10.991   2.827   2.467
37693SOL    HW115086  11.057   2.767   2.502
37693SOL    HW215087  11.032   2.855   2.384
37694SOL     OW15088   9.427   2.592   3.443
37694SOL    HW115089   9.513   2.634   3.460
37694SOL    HW215090   9.369   2.666   3.468
37695SOL     OW15091   9.902   3.272   2.627
37695SOL    HW115092   9.863   3.183   2.638
37695SOL    HW215093   9.901   3.279   2.529
37696SOL     OW15094  10.597   3.087   3.297
37696SOL    HW115095  10.618   3.018   3.233
37696SOL    HW215096  10.666   3.076   3.365
37697SOL     OW15097  10.154   1.861   2.373
37697SOL    HW115098  10.185   1.952   2.358
37697SOL    HW215099  10.058   1.872   2.373
37698SOL     OW15100   9.485   2.816   3.095
37698SOL    HW115101   9.576   2.785   3.096
37698SOL    HW215102   9.431   2.738   3.079
37699SOL     OW15103  10.831   2.872   2.097
37699SOL    HW115104  10.762   2.814   2.135
37699SOL    HW215105  10.911   2.835   2.134
37700SOL     OW15106  10.502   3.676   3.463
37700SOL    HW115107  10.488   3.734   3.388
37700SOL    HW215108  10.506   3.588   3.422
37701SOL     OW15109   9.644   2.098   3.655
37701SOL    HW115110   9.703   2.174   3.648
37701SOL    HW215111   9.567   2.137   3.699
37702SOL     OW15112  10.758   3.287   2.815
37702SOL    HW115113  10.699   3.307   2.890
37702SOL    HW215114  10.741   3.192   2.799
37703SOL     OW15115  11.000   3.584   2.450
37703SOL    HW115116  10.972   3.539   2.370
37703SOL    HW215117  10.970   3.520   2.518
37704SOL     OW15118   9.875   2.590   2.109
37704SOL    HW115119   9.931   2.667   2.089
37704SOL    HW215120   9.887   2.577   2.204
37705SOL     OW15121  10.564   2.227   2.796
37705SOL    HW115122  10.480   2.180   2.810
37705SOL    HW215123  10.623   2.177   2.857
37706SOL     OW15124  10.869   3.498   2.156
37706SOL    HW115125  10.908   3.586   2.147
37706SOL    HW215126  10.853   3.475   2.062
37707SOL     OW15127  10.106   2.482   3.334
37707SOL    HW115128  10.097   2.443   3.424
37707SOL    HW215129  10.050   2.424   3.279
37708SOL     OW15130  10.708   2.338   3.543
37708SOL    HW115131  10.712   2.397   3.620
37708SOL    HW215132  10.763   2.263   3.569
37709SOL     OW15133  10.257   2.744   3.443
37709SOL    HW115134  10.297   2.663   3.406
37709SOL    HW215135  10.215   2.781   3.363
37710SOL     OW15136  10.321   2.250   3.114
37710SOL    HW115137  10.232   2.274   3.144
37710SOL    HW215138  10.304   2.209   3.028
37711SOL     OW15139  10.348   2.559   2.283
37711SOL    HW115140  10.358   2.567   2.379
37711SOL    HW215141  10.264   2.510   2.274
37712SOL     OW15142   9.417   2.672   2.636
37712SOL    HW115143   9.485   2.676   2.705
37712SOL    HW215144   9.365   2.751   2.655
37713SOL     OW15145   9.411   3.698   3.421
37713SOL    HW115146   9.429   3.684   3.517
37713SOL    HW215147   9.331   3.643   3.413
37714SOL     OW15148  10.194   2.220   2.088
37714SOL    HW115149  10.251   2.260   2.021
37714SOL    HW215150  10.154   2.149   2.034
37715SOL     OW15151  11.035   2.473   3.694
37715SOL    HW115152  10.999   2.548   3.644
37715SOL    HW215153  11.040   2.407   3.623
37716SOL     OW15154  10.667   3.030   2.434
37716SOL    HW115155  10.730   3.018   2.362
37716SOL    HW215156  10.601   3.088   2.393
37717SOL     OW15157   9.857   2.067   2.759
37717SOL    HW115158   9.862   2.079   2.855
37717SOL    HW215159   9.854   2.157   2.726
37718SOL     OW15160  10.323   3.316   2.356
37718SOL    HW115161  10.292   3.381   2.290
37718SOL    HW215162  10.297   3.360   2.439
37719SOL     OW15163   9.650   3.671   2.724
37719SOL    HW115164   9.699   3.588   2.743
37719SOL    HW215165   9.715   3.738   2.754
37720SOL     OW15166  11.086   2.895   2.747
37720SOL    HW115167  11.033   2.923   2.671
37720SOL    HW215168  11.023   2.896   2.821
37721SOL     OW15169  10.522   3.399   3.365
37721SOL    HW115170  10.501   3.326   3.427
37721SOL    HW215171  10.477   3.368   3.285
37722SOL     OW15172  10.769   2.620   2.586
37722SOL    HW115173  10.765   2.574   2.671
37722SOL    HW215174  10.854   2.666   2.589
37723SOL     OW15175   9.778   3.126   3.590
37723SOL    HW115176   9.740   3.127   3.499
37723SOL    HW215177   9.695   3.131   3.642
37724SOL     OW15178  10.430   3.624   2.107
37724SOL    HW115179  10.348   3.581   2.138
37724SOL    HW215180  10.448   3.579   2.022
37725SOL     OW15181   9.475   2.152   3.356
37725SOL    HW115182   9.396   2.199   3.386
37725SOL    HW215183   9.479   2.077   3.416
37726SOL     OW15184   9.768   3.589   2.194
37726SOL    HW115185   9.813   3.652   2.255
37726SOL    HW215186   9.838   3.567   2.132
37727SOL     OW15187  10.730   1.983   2.314
37727SOL    HW115188  10.716   1.947   2.224
37727SOL    HW215189  10.825   1.976   2.326
37728SOL     OW15190   9.572   3.657   3.084
37728SOL    HW115191   9.612   3.588   3.140
37728SOL    HW215192   9.545   3.607   3.007
37729SOL     OW15193  10.279   3.545   2.752
37729SOL    HW115194  10.368   3.508   2.742
37729SOL    HW215195  10.230   3.500   2.681
37730SOL     OW15196   9.660   2.570   2.301
37730SOL    HW115197   9.698   2.485   2.331
37730SOL    HW215198   9.569   2.559   2.337
37731SOL     OW15199  10.840   2.090   3.594
37731SOL    HW115200  10.828   2.101   3.691
37731SOL    HW215201  10.781   2.015   3.579
37732SOL     OW15202   9.938   1.977   1.968
37732SOL    HW115203  10.009   2.021   1.917
37732SOL    HW215204   9.897   1.923   1.898
37733SOL     OW15205  10.067   2.121   3.597
37733SOL    HW115206  10.145   2.063   3.606
37733SOL    HW215207  10.014   2.098   3.675
37734SOL     OW15208  10.195   3.395   3.058
37734SOL    HW115209  10.186   3.372   2.964
37734SOL    HW215210  10.262   3.332   3.089
37735SOL     OW15211  10.643   2.461   3.284
37735SOL    HW115212  10.677   2.426   3.368
37735SOL    HW215213  10.675   2.553   3.281
37736SOL     OW15214  10.143   3.256   2.801
37736SOL    HW115215  10.228   3.253   2.753
37736SOL    HW215216  10.079   3.269   2.730
37737SOL     OW15217  10.237   2.371   2.771
37737SOL    HW115218  10.217   2.362   2.675
37737SOL    HW215219  10.265   2.280   2.791
37738SOL     OW15220   9.880   1.908   2.363
37738SOL    HW115221   9.802   1.915   2.421
37738SOL    HW215222   9.864   1.983   2.301
37739SOL     OW15223  10.745   3.030   1.887
37739SOL    HW115224  10.769   2.967   1.958
37739SOL    HW215225  10.667   3.074   1.924
37740SOL     OW15226   9.589   1.906   2.055
37740SOL    HW115227   9.650   1.972   2.019
37740SOL    HW215228   9.652   1.839   2.087
37741SOL     OW15229  10.244   2.118   2.354
37741SOL    HW115230  10.223   2.154   2.266
37741SOL    HW215231  10.340   2.131   2.357
37742SOL     OW15232  10.374   2.532   3.325
37742SOL    HW115233  10.310   2.460   3.327
37742SOL    HW215234  10.460   2.487   3.322
37743SOL     OW15235  10.529   3.467   2.649
37743SOL    HW115236  10.545   3.533   2.579
37743SOL    HW215237  10.616   3.460   2.691
37744SOL     OW15238   9.770   3.037   2.607
37744SOL    HW115239   9.702   3.004   2.669
37744SOL    HW215240   9.732   3.011   2.521
37745SOL     OW15241  10.576   3.674   2.468
37745SOL    HW115242  10.623   3.733   2.405
37745SOL    HW215243  10.532   3.739   2.526
37746SOL     OW15244  10.342   2.408   1.873
37746SOL    HW115245  10.285   2.483   1.850
37746SOL    HW215246  10.413   2.448   1.923
37747SOL     OW15247   9.358   2.429   3.244
37747SOL    HW115248   9.453   2.411   3.236
37747SOL    HW215249   9.359   2.499   3.312
37748SOL     OW15250   9.874   2.108   3.039
37748SOL    HW115251   9.921   2.036   3.083
37748SOL    HW215252   9.782   2.094   3.069
37749SOL     OW15253  10.194   2.330   2.518
37749SOL    HW115254  10.140   2.374   2.452
37749SOL    HW215255  10.212   2.244   2.476
37750SOL     OW15256  10.290   1.935   2.642
37750SOL    HW115257  10.268   1.916   2.550
37750SOL    HW215258  10.293   1.846   2.683
37751SOL     OW15259  10.744   3.019   2.747
37751SOL    HW115260  10.696   2.939   2.770
37751SOL    HW215261  10.724   3.027   2.652
37752SOL     OW15262  10.781   2.467   2.864
37752SOL    HW115263  10.725   2.388   2.867
37752SOL    HW215264  10.869   2.433   2.888
37753SOL     OW15265  11.100   2.686   2.237
37753SOL    HW115266   0.048   2.643   2.310
37753SOL    HW215267   0.009   2.617   2.169
37754SOL     OW15268   9.803   3.278   1.987
37754SOL    HW115269   9.719   3.268   2.036
37754SOL    HW215270   9.786   3.228   1.907
37755SOL     OW15271  10.700   2.460   1.938
37755SOL    HW115272  10.643   2.426   2.011
37755SOL    HW215273  10.788   2.436   1.969
37756SOL     OW15274   9.825   2.091   2.181
37756SOL    HW115275   9.872   2.050   2.105
37756SOL    HW215276   9.802   2.178   2.144
37757SOL     OW15277  11.039   3.108   3.452
37757SOL    HW115278   0.028   3.073   3.445
37757SOL    HW215279  11.054   3.200   3.476
37758SOL     OW15280  10.378   3.213   3.202
37758SOL    HW115281  10.298   3.179   3.246
37758SOL    HW215282  10.448   3.164   3.251
37759SOL     OW15283  10.933   3.479   3.507
37759SOL    HW115284  10.934   3.531   3.426
37759SOL    HW215285  11.018   3.434   3.504
37760SOL     OW15286  10.437   3.083   2.950
37760SOL    HW115287  10.368   3.106   3.013
37760SOL    HW215288  10.410   3.127   2.868
37761SOL     OW15289  10.919   2.959   2.960
37761SOL    HW115290  10.909   3.020   3.036
37761SOL    HW215291  10.861   3.002   2.895
37762SOL     OW15292  10.226   1.958   3.263
37762SOL    HW115293  10.252   1.931   3.173
37762SOL    HW215294  10.308   2.002   3.293
37763SOL     OW15295  10.310   2.970   3.602
37763SOL    HW115296  10.218   2.995   3.622
37763SOL    HW215297  10.299   2.896   3.540
37764SOL     OW15298  10.015   2.932   2.224
37764SOL    HW115299  10.020   2.922   2.321
37764SOL    HW215300  10.091   2.879   2.193
37765SOL     OW15301   9.730   2.670   3.123
37765SOL    HW115302   9.799   2.670   3.192
37765SOL    HW215303   9.687   2.584   3.136
37766SOL     OW15304  10.597   2.244   3.135
37766SOL    HW115305  10.623   2.326   3.181
37766SOL    HW215306  10.504   2.260   3.113
37767SOL     OW15307   9.383   3.431   3.183
37767SOL    HW115308   9.384   3.526   3.198
37767SOL    HW215309   9.476   3.405   3.197
37768SOL     OW15310   9.676   2.967   2.356
37768SOL    HW115311   9.717   3.039   2.306
37768SOL    HW215312   9.739   2.895   2.346
37769SOL     OW15313   9.853   2.394   2.715
37769SOL    HW115314   9.887   2.453   2.646
37769SOL    HW215315   9.910   2.417   2.790
37770SOL     OW15316  10.552   3.229   2.240
37770SOL    HW115317  10.607   3.298   2.280
37770SOL    HW215318  10.465   3.250   2.280
37771SOL     OW15319  10.606   3.330   3.036
37771SOL    HW115320  10.669   3.323   3.109
37771SOL    HW215321  10.542   3.260   3.056
37772SOL     OW15322  10.888   2.492   2.327
37772SOL    HW115323  10.830   2.539   2.390
37772SOL    HW215324  10.933   2.565   2.282
37773SOL     OW15325   9.650   3.380   3.187
37773SOL    HW115326   9.636   3.345   3.096
37773SOL    HW215327   9.748   3.384   3.189
37774SOL     OW15328   9.749   2.601   3.500
37774SOL    HW115329   9.799   2.645   3.429
37774SOL    HW215330   9.762   2.508   3.478
37775SOL     OW15331  10.920   2.632   3.520
37775SOL    HW115332  10.832   2.672   3.531
37775SOL    HW215333  10.963   2.694   3.458
37776SOL     OW15334  10.295   1.964   3.610
37776SOL    HW115335  10.360   2.032   3.590
37776SOL    HW215336  10.338   1.885   3.573
37777SOL     OW15337   9.805   1.869   3.617
37777SOL    HW115338   9.766   1.814   3.546
37777SOL    HW215339   9.743   1.944   3.620
37778SOL     OW15340   9.897   2.752   2.906
37778SOL    HW115341   9.925   2.844   2.914
37778SOL    HW215342   9.844   2.737   2.987
37779SOL     OW15343  10.694   2.730   2.889
37779SOL    HW115344  10.604   2.700   2.872
37779SOL    HW215345  10.740   2.645   2.899
37780SOL     OW15346  10.533   2.386   2.147
37780SOL    HW115347  10.527   2.305   2.200
37780SOL    HW215348  10.481   2.449   2.199
37781SOL     OW15349   9.613   2.059   3.115
37781SOL    HW115350   9.558   2.086   3.192
37781SOL    HW215351   9.587   1.965   3.105
37782SOL     OW15352   9.370   3.155   3.149
37782SOL    HW115353   9.358   3.104   3.232
37782SOL    HW215354   9.349   3.245   3.177
37783SOL     OW15355  10.031   2.502   2.909
37783SOL    HW115356  10.113   2.478   2.863
37783SOL    HW215357  10.012   2.595   2.885
37784SOL     OW15358   9.633   1.937   2.461
37784SOL    HW115359   9.594   2.024   2.484
37784SOL    HW215360   9.630   1.892   2.547
37785SOL     OW15361  10.929   2.241   2.214
37785SOL    HW115362  10.968   2.184   2.282
37785SOL    HW215363  10.901   2.319   2.264
37786SOL     OW15364  10.365   2.597   2.826
37786SOL    HW115365  10.348   2.609   2.921
37786SOL    HW215366  10.325   2.509   2.810
37787SOL     OW15367  10.301   3.431   3.577
37787SOL    HW115368  10.289   3.484   3.495
37787SOL    HW215369  10.333   3.346   3.542
37788SOL     OW15370   9.676   2.764   3.694
37788SOL    HW115371   9.767   2.791   3.711
37788SOL    HW215372   9.688   2.696   3.625
37789SOL     OW15373  10.808   2.131   1.993
37789SOL    HW115374  10.750   2.063   2.032
37789SOL    HW215375  10.850   2.171   2.072
37790SOL     OW15376  10.609   2.709   1.897
37790SOL    HW115377  10.651   2.621   1.907
37790SOL    HW215378  10.646   2.739   1.811
37791SOL     OW15379  10.385   3.219   2.705
37791SOL    HW115380  10.387   3.143   2.643
37791SOL    HW215381  10.450   3.281   2.667
37792SOL     OW15382   9.601   2.671   2.848
37792SOL    HW115383   9.697   2.684   2.842
37792SOL    HW215384   9.596   2.579   2.877
37793SOL     OW15385   9.638   2.395   2.869
37793SOL    HW115386   9.606   2.304   2.856
37793SOL    HW215387   9.708   2.400   2.800
37794SOL     OW15388  10.454   2.244   3.536
37794SOL    HW115389  10.405   2.283   3.610
37794SOL    HW215390  10.545   2.278   3.549
37795SOL     OW15391  10.463   2.062   3.329
37795SOL    HW115392  10.461   2.130   3.398
37795SOL    HW215393  10.506   2.110   3.256
37796SOL     OW15394   9.311   3.185   2.039
37796SOL    HW115395   9.218   3.202   2.012
37796SOL    HW215396   9.304   3.098   2.083
37797SOL     OW15397   9.401   3.650   2.808
37797SOL    HW115398   9.378   3.571   2.754
37797SOL    HW215399   9.495   3.665   2.784
37798SOL     OW15400   9.794   3.455   2.789
37798SOL    HW115401   9.866   3.516   2.813
37798SOL    HW215402   9.842   3.387   2.738
37799SOL     OW15403  10.287   2.632   3.084
37799SOL    HW115404  10.331   2.602   3.167
37799SOL    HW215405  10.194   2.616   3.106
37800SOL     OW15406   9.330   2.378   2.971
37800SOL    HW115407   9.413   2.367   2.922
37800SOL    HW215408   9.362   2.406   3.058
37801SOL     OW15409   9.534   2.372   3.582
37801SOL    HW115410   9.588   2.333   3.512
37801SOL    HW215411   9.483   2.440   3.534
37802SOL     OW15412  10.694   2.781   3.522
37802SOL    HW115413  10.711   2.877   3.526
37802SOL    HW215414  10.680   2.767   3.427
37803SOL     OW15415  10.107   2.440   2.224
37803SOL    HW115416  10.138   2.358   2.180
37803SOL    HW215417  10.047   2.475   2.157
37804SOL     OW15418   9.557   3.413   3.576
37804SOL    HW115419   9.536   3.481   3.642
37804SOL    HW215420   9.566   3.332   3.630
37805SOL     OW15421   9.976   2.351   3.134
37805SOL    HW115422   9.945   2.267   3.096
37805SOL    HW215423   9.986   2.408   3.055
37806SOL     OW15424  10.243   3.575   3.353
37806SOL    HW115425  10.221   3.542   3.265
37806SOL    HW215426  10.234   3.671   3.342
37807SOL     OW15427   9.758   2.326   2.065
37807SOL    HW115428   9.816   2.402   2.049
37807SOL    HW215429   9.671   2.366   2.074
37808SOL     OW15430   9.476   2.961   3.329
37808SOL    HW115431   9.434   2.922   3.407
37808SOL    HW215432   9.452   2.902   3.256
37809SOL     OW15433  10.604   2.913   3.078
37809SOL    HW115434  10.638   2.860   3.003
37809SOL    HW215435  10.549   2.981   3.034
37810SOL     OW15436  10.621   2.721   2.170
37810SOL    HW115437  10.542   2.678   2.204
37810SOL    HW215438  10.603   2.727   2.074
37811SOL     OW15439  11.036   3.616   2.983
37811SOL    HW115440   0.014   3.632   2.928
37811SOL    HW215441  11.022   3.519   2.971
37812SOL     OW15442  10.560   3.592   2.967
37812SOL    HW115443  10.639   3.608   2.912
37812SOL    HW215444  10.566   3.497   2.984
37813SOL     OW15445   9.408   3.132   2.889
37813SOL    HW115446   9.392   3.141   2.986
37813SOL    HW215447   9.333   3.077   2.863
37814SOL     OW15448   9.996   3.511   3.600
37814SOL    HW115449   9.943   3.591   3.584
37814SOL    HW215450  10.076   3.528   3.548
37815SOL     OW15451  11.037   1.993   2.404
37815SOL    HW115452  11.088   1.995   2.320
37815SOL    HW215453  11.037   1.899   2.429
37816SOL     OW15454  10.691   3.442   2.367
37816SOL    HW115455  10.746   3.465   2.290
37816SOL    HW215456  10.644   3.525   2.387
37817SOL     OW15457   9.461   3.654   3.688
37817SOL    HW115458   9.408   3.590   3.739
37817SOL    HW215459   9.490   3.715   3.757
37818SOL     OW15460  10.572   2.806   2.554
37818SOL    HW115461  10.647   2.744   2.562
37818SOL    HW215462  10.607   2.872   2.491
37819SOL     OW15463  10.113   3.108   3.311
37819SOL    HW115464  10.080   3.152   3.392
37819SOL    HW215465  10.052   3.145   3.245
37820SOL     OW15466   9.980   3.477   2.029
37820SOL    HW115467   9.989   3.499   1.934
37820SOL    HW215468   9.924   3.397   2.023
37821SOL     OW15469   9.555   2.179   2.561
37821SOL    HW115470   9.468   2.218   2.544
37821SOL    HW215471   9.560   2.179   2.658
37822SOL     OW15472  10.513   3.493   1.887
37822SOL    HW115473  10.507   3.398   1.904
37822SOL    HW215474  10.450   3.506   1.813
37823SOL     OW15475  10.136   2.858   3.230
37823SOL    HW115476  10.183   2.873   3.147
37823SOL    HW215477  10.131   2.949   3.267
37824SOL     OW15478  10.214   2.771   2.128
37824SOL    HW115479  10.286   2.803   2.069
37824SOL    HW215480  10.259   2.699   2.174
37825SOL     OW15481  10.824   3.454   1.897
37825SOL    HW115482  10.731   3.481   1.893
37825SOL    HW215483  10.851   3.463   1.804
37826SOL     OW15484   9.671   3.134   3.349
37826SOL    HW115485   9.643   3.204   3.289
37826SOL    HW215486   9.598   3.069   3.339
37827SOL     OW15487  10.882   3.154   3.147
37827SOL    HW115488  10.957   3.143   3.207
37827SOL    HW215489  10.832   3.226   3.190
37828SOL     OW15490  10.364   2.976   2.587
37828SOL    HW115491  10.295   2.919   2.625
37828SOL    HW215492  10.439   2.914   2.579
37829SOL     OW15493  10.336   2.092   2.851
37829SOL    HW115494  10.317   2.049   2.765
37829SOL    HW215495  10.340   2.014   2.909
37830SOL     OW15496   9.914   3.328   2.357
37830SOL    HW115497   9.977   3.312   2.285
37830SOL    HW215498   9.856   3.395   2.319
37831SOL     OW15499   9.558   3.237   2.131
37831SOL    HW115500   9.461   3.225   2.121
37831SOL    HW215501   9.566   3.256   2.228
37832SOL     OW15502   9.439   2.841   3.571
37832SOL    HW115503   9.361   2.850   3.631
37832SOL    HW215504   9.513   2.832   3.632
37833SOL     OW15505   9.984   2.050   3.345
37833SOL    HW115506  10.070   2.013   3.316
37833SOL    HW215507  10.008   2.085   3.434
37834SOL     OW15508   9.407   2.234   1.910
37834SOL    HW115509   9.321   2.207   1.876
37834SOL    HW215510   9.437   2.294   1.840
37835SOL     OW15511  10.720   2.727   3.250
37835SOL    HW115512  10.666   2.782   3.190
37835SOL    HW215513  10.809   2.743   3.215
37836SOL     OW15514   9.370   2.034   2.175
37836SOL    HW115515   9.361   2.111   2.117
37836SOL    HW215516   9.452   1.993   2.143
37837SOL     OW15517  10.501   3.189   1.969
37837SOL    HW115518  10.406   3.172   1.972
37837SOL    HW215519  10.522   3.203   2.064
37838SOL     OW15520   9.930   2.679   3.306
37838SOL    HW115521   9.986   2.756   3.289
37838SOL    HW215522   9.998   2.610   3.314
37839SOL     OW15523  10.800   3.624   2.819
37839SOL    HW115524  10.834   3.654   2.734
37839SOL    HW215525  10.879   3.628   2.875
37840SOL     OW15526  10.078   2.399   3.587
37840SOL    HW115527  10.071   2.438   3.675
37840SOL    HW215528  10.056   2.306   3.602
37841SOL     OW15529  10.779   3.047   3.487
37841SOL    HW115530  10.766   3.054   3.585
37841SOL    HW215531  10.873   3.072   3.480
37842SOL     OW15532   9.680   3.600   3.419
37842SOL    HW115533   9.597   3.647   3.403
37842SOL    HW215534   9.646   3.516   3.456
37843SOL     OW15535  10.983   2.728   3.089
37843SOL    HW115536  10.995   2.654   3.027
37843SOL    HW215537  10.955   2.802   3.031
37844SOL     OW15538  10.516   2.183   2.337
37844SOL    HW115539  10.582   2.114   2.320
37844SOL    HW215540  10.558   2.233   2.410
37845SOL     OW15541   9.900   2.608   2.518
37845SOL    HW115542   9.933   2.698   2.511
37845SOL    HW215543   9.812   2.612   2.479
37846SOL     OW15544  11.062   2.245   3.506
37846SOL    HW115545  11.029   2.287   3.426
37846SOL    HW215546  10.988   2.189   3.534
37847SOL     OW15547  11.046   2.787   3.346
37847SOL    HW115548  11.031   2.882   3.348
37847SOL    HW215549  11.028   2.763   3.252
37848SOL     OW15550  10.184   3.221   1.904
37848SOL    HW115551  10.151   3.242   1.993
37848SOL    HW215552  10.196   3.308   1.862
37849SOL     OW15553   9.974   3.654   2.793
37849SOL    HW115554   9.954   3.748   2.772
37849SOL    HW215555  10.069   3.649   2.786
37850SOL     OW15556  10.191   2.802   2.703
37850SOL    HW115557  10.240   2.732   2.747
37850SOL    HW215558  10.166   2.861   2.776
37851SOL     OW15559  10.403   2.858   1.957
37851SOL    HW115560  10.382   2.915   1.882
37851SOL    HW215561  10.482   2.810   1.926
37852SOL     OW15562   0.051   3.407   2.704
37852SOL    HW115563  11.072   3.387   2.654
37852SOL    HW215564   0.066   3.325   2.753
37853SOL     OW15565   9.546   3.181   3.715
37853SOL    HW115566   9.473   3.148   3.661
37853SOL    HW215567   9.503   3.193   3.801
37854SOL     OW15568   9.396   3.116   2.524
37854SOL    HW115569   9.379   3.062   2.602
37854SOL    HW215570   9.481   3.081   2.494
37855SOL     OW15571   9.989   3.262   3.489
37855SOL    HW115572   9.908   3.214   3.515
37855SOL    HW215573   9.979   3.347   3.537
37856SOL     OW15574   0.007   2.036   3.049
37856SOL    HW115575   0.026   1.959   3.103
37856SOL    HW215576  11.074   1.998   2.968
37857SOL     OW15577   9.733   2.316   2.394
37857SOL    HW115578   9.784   2.249   2.348
37857SOL    HW215579   9.688   2.265   2.464
37858SOL     OW15580  10.979   3.359   2.963
37858SOL    HW115581  10.904   3.326   2.911
37858SOL    HW215582  10.999   3.284   3.021
37859SOL     OW15583   9.635   2.395   3.142
37859SOL    HW115584   9.713   2.359   3.185
37859SOL    HW215585   9.648   2.372   3.048
37860SOL     OW15586  10.135   3.457   2.536
37860SOL    HW115587  10.126   3.536   2.478
37860SOL    HW215588  10.044   3.423   2.542
37861SOL     OW15589  10.730   2.100   2.957
37861SOL    HW115590  10.761   2.020   3.002
37861SOL    HW215591  10.693   2.152   3.032
37862SOL     OW15592  10.331   1.861   3.012
37862SOL    HW115593  10.282   1.780   2.988
37862SOL    HW215594  10.424   1.829   3.008
37863SOL     OW15595  10.104   3.211   2.176
37863SOL    HW115596  10.064   3.124   2.183
37863SOL    HW215597  10.179   3.205   2.237
37864SOL     OW15598   9.915   3.409   3.138
37864SOL    HW115599   9.913   3.495   3.184
37864SOL    HW215600  10.007   3.409   3.108
37865SOL     OW15601  10.666   1.900   2.071
37865SOL    HW115602  10.668   1.865   1.981
37865SOL    HW215603  10.584   1.857   2.103
37866SOL     OW15604  10.629   2.330   2.555
37866SOL    HW115605  10.567   2.404   2.544
37866SOL    HW215606  10.612   2.301   2.647
37867SOL     OW15607  10.920   2.068   2.766
37867SOL    HW115608  10.844   2.071   2.826
37867SOL    HW215609  10.891   2.122   2.693
37868SOL     OW15610   9.330   2.945   2.196
37868SOL    HW115611   9.416   2.947   2.240
37868SOL    HW215612   9.315   2.849   2.187
37869SOL     OW15613  10.204   3.500   2.185
37869SOL    HW115614  10.126   3.487   2.128
37869SOL    HW215615  10.172   3.569   2.248
37870SOL     OW15616   9.542   2.497   3.860
37870SOL    HW115617   9.449   2.489   3.882
37870SOL    HW215618   9.547   2.476   3.765
37871SOL     OW15619   9.536   2.144   4.726
37871SOL    HW115620   9.560   2.120   4.817
37871SOL    HW215621   9.450   2.099   4.716
37872SOL     OW15622   9.319   2.274   4.358
37872SOL    HW115623   9.237   2.295   4.407
37872SOL    HW215624   9.301   2.184   4.327
37873SOL     OW15625   9.880   3.154   4.919
37873SOL    HW115626   9.794   3.146   4.875
37873SOL    HW215627   9.882   3.248   4.942
37874SOL     OW15628  10.877   3.387   4.441
37874SOL    HW115629  10.841   3.348   4.523
37874SOL    HW215630  10.808   3.370   4.375
37875SOL     OW15631  10.443   2.557   4.415
37875SOL    HW115632  10.485   2.644   4.405
37875SOL    HW215633  10.409   2.563   4.506
37876SOL     OW15634   0.003   2.453   3.955
37876SOL    HW115635  11.059   2.466   3.869
37876SOL    HW215636  11.039   2.403   4.006
37877SOL     OW15637  10.048   3.022   4.752
37877SOL    HW115638   9.988   3.064   4.817
37877SOL    HW215639  10.085   3.101   4.708
37878SOL     OW15640  10.192   2.619   5.538
37878SOL    HW115641  10.153   2.679   5.603
37878SOL    HW215642  10.197   2.675   5.458
37879SOL     OW15643  10.004   2.891   4.384
37879SOL    HW115644  10.063   2.861   4.456
37879SOL    HW215645   9.936   2.941   4.433
37880SOL     OW15646  10.017   3.025   5.523
37880SOL    HW115647  10.064   3.108   5.545
37880SOL    HW215648   9.932   3.058   5.487
37881SOL     OW15649   9.629   3.292   4.793
37881SOL    HW115650   9.561   3.241   4.745
37881SOL    HW215651   9.675   3.342   4.723
37882SOL     OW15652  10.767   3.363   5.109
37882SOL    HW115653  10.794   3.455   5.121
37882SOL    HW215654  10.687   3.359   5.166
37883SOL     OW15655   9.748   2.258   5.254
37883SOL    HW115656   9.821   2.195   5.242
37883SOL    HW215657   9.670   2.204   5.235
37884SOL     OW15658   9.540   3.576   4.202
37884SOL    HW115659   9.571   3.655   4.251
37884SOL    HW215660   9.597   3.578   4.124
37885SOL     OW15661  10.432   3.201   5.395
37885SOL    HW115662  10.478   3.202   5.480
37885SOL    HW215663  10.385   3.116   5.400
37886SOL     OW15664   9.562   3.300   4.255
37886SOL    HW115665   9.560   3.397   4.256
37886SOL    HW215666   9.487   3.277   4.312
37887SOL     OW15667   9.589   2.952   4.626
37887SOL    HW115668   9.582   2.874   4.681
37887SOL    HW215669   9.530   3.014   4.672
37888SOL     OW15670   9.906   3.663   5.128
37888SOL    HW115671   9.833   3.635   5.187
37888SOL    HW215672   9.928   3.752   5.163
37889SOL     OW15673   9.935   2.838   3.846
37889SOL    HW115674   9.953   2.907   3.779
37889SOL    HW215675   9.958   2.884   3.928
37890SOL     OW15676  10.931   1.958   5.225
37890SOL    HW115677  10.923   2.029   5.161
37890SOL    HW215678  10.915   2.003   5.309
37891SOL     OW15679   9.434   2.510   4.289
37891SOL    HW115680   9.396   2.421   4.305
37891SOL    HW215681   9.419   2.553   4.376
37892SOL     OW15682   9.343   3.453   3.837
37892SOL    HW115683   9.334   3.360   3.863
37892SOL    HW215684   9.324   3.500   3.920
37893SOL     OW15685  10.997   2.807   4.310
37893SOL    HW115686  11.070   2.780   4.368
37893SOL    HW215687  11.042   2.865   4.247
37894SOL     OW15688   9.442   2.600   5.303
37894SOL    HW115689   9.535   2.623   5.313
37894SOL    HW215690   9.400   2.680   5.337
37895SOL     OW15691   9.913   3.270   4.487
37895SOL    HW115692   9.873   3.181   4.502
37895SOL    HW215693   9.903   3.276   4.390
37896SOL     OW15694  10.597   3.094   5.155
37896SOL    HW115695  10.618   3.022   5.093
37896SOL    HW215696  10.664   3.083   5.226
37897SOL     OW15697  10.148   1.870   4.226
37897SOL    HW115698  10.172   1.964   4.212
37897SOL    HW215699  10.050   1.875   4.235
37898SOL     OW15700   9.487   2.836   4.979
37898SOL    HW115701   9.578   2.807   4.962
37898SOL    HW215702   9.434   2.764   4.942
37899SOL     OW15703  10.840   2.862   3.933
37899SOL    HW115704  10.772   2.811   3.982
37899SOL    HW215705  10.915   2.857   3.993
37900SOL     OW15706  10.494   3.673   5.324
37900SOL    HW115707  10.486   3.740   5.254
37900SOL    HW215708  10.508   3.591   5.274
37901SOL     OW15709   9.646   2.099   5.500
37901SOL    HW115710   9.707   2.173   5.515
37901SOL    HW215711   9.568   2.129   5.550
37902SOL     OW15712  10.758   3.284   4.679
37902SOL    HW115713  10.695   3.300   4.752
37902SOL    HW215714  10.742   3.190   4.659
37903SOL     OW15715  10.998   3.583   4.297
37903SOL    HW115716  10.965   3.531   4.224
37903SOL    HW215717  10.976   3.526   4.373
37904SOL     OW15718   9.895   2.579   3.980
37904SOL    HW115719   9.893   2.666   3.937
37904SOL    HW215720   9.822   2.584   4.044
37905SOL     OW15721  10.558   2.218   4.630
37905SOL    HW115722  10.472   2.180   4.654
37905SOL    HW215723  10.617   2.176   4.696
37906SOL     OW15724  10.864   3.496   4.018
37906SOL    HW115725  10.917   3.576   4.012
37906SOL    HW215726  10.847   3.477   3.923
37907SOL     OW15727  10.095   2.484   5.202
37907SOL    HW115728  10.082   2.442   5.290
37907SOL    HW215729  10.050   2.422   5.142
37908SOL     OW15730  10.699   2.340   5.395
37908SOL    HW115731  10.702   2.402   5.471
37908SOL    HW215732  10.755   2.267   5.426
37909SOL     OW15733  10.245   2.754   5.305
37909SOL    HW115734  10.286   2.671   5.270
37909SOL    HW215735  10.205   2.789   5.223
37910SOL     OW15736  10.318   2.255   4.965
37910SOL    HW115737  10.231   2.277   4.999
37910SOL    HW215738  10.299   2.210   4.882
37911SOL     OW15739  10.334   2.589   4.142
37911SOL    HW115740  10.360   2.580   4.235
37911SOL    HW215741  10.263   2.522   4.137
37912SOL     OW15742   9.409   2.660   4.514
37912SOL    HW115743   9.483   2.665   4.577
37912SOL    HW215744   9.358   2.740   4.538
37913SOL     OW15745   9.412   3.692   5.280
37913SOL    HW115746   9.423   3.679   5.376
37913SOL    HW215747   9.317   3.687   5.268
37914SOL     OW15748  10.188   2.234   3.929
37914SOL    HW115749  10.229   2.293   3.862
37914SOL    HW215750  10.217   2.148   3.897
37915SOL     OW15751  11.022   2.450   5.558
37915SOL    HW115752  10.980   2.522   5.507
37915SOL    HW215753  11.070   2.403   5.489
37916SOL     OW15754  10.680   3.019   4.307
37916SOL    HW115755  10.735   3.016   4.228
37916SOL    HW215756  10.615   3.086   4.283
37917SOL     OW15757   9.855   2.059   4.622
37917SOL    HW115758   9.865   2.075   4.718
37917SOL    HW215759   9.850   2.150   4.588
37918SOL     OW15760  10.321   3.324   4.215
37918SOL    HW115761  10.286   3.390   4.152
37918SOL    HW215762  10.301   3.365   4.300
37919SOL     OW15763   9.652   3.676   4.578
37919SOL    HW115764   9.707   3.596   4.586
37919SOL    HW215765   9.715   3.747   4.599
37920SOL     OW15766  11.083   2.865   4.609
37920SOL    HW115767  11.050   2.930   4.546
37920SOL    HW215768  11.032   2.882   4.690
37921SOL     OW15769  10.527   3.401   5.219
37921SOL    HW115770  10.502   3.334   5.285
37921SOL    HW215771  10.474   3.372   5.143
37922SOL     OW15772   9.620   2.816   3.982
37922SOL    HW115773   9.664   2.841   3.899
37922SOL    HW215774   9.581   2.731   3.956
37923SOL     OW15775  10.781   2.619   4.441
37923SOL    HW115776  10.774   2.574   4.527
37923SOL    HW215777  10.862   2.671   4.449
37924SOL     OW15778   9.772   3.135   5.446
37924SOL    HW115779   9.728   3.140   5.357
37924SOL    HW215780   9.694   3.140   5.504
37925SOL     OW15781  10.425   3.635   3.971
37925SOL    HW115782  10.352   3.585   4.011
37925SOL    HW215783  10.437   3.590   3.886
37926SOL     OW15784   9.477   2.155   5.223
37926SOL    HW115785   9.397   2.199   5.256
37926SOL    HW215786   9.483   2.077   5.280
37927SOL     OW15787   9.767   3.599   4.037
37927SOL    HW115788   9.819   3.645   4.106
37927SOL    HW215789   9.835   3.561   3.980
37928SOL     OW15790  10.725   2.010   4.173
37928SOL    HW115791  10.711   1.967   4.086
37928SOL    HW215792  10.813   1.980   4.198
37929SOL     OW15793   9.567   3.656   4.954
37929SOL    HW115794   9.615   3.583   4.995
37929SOL    HW215795   9.554   3.623   4.864
37930SOL     OW15796  10.285   3.569   4.603
37930SOL    HW115797  10.360   3.513   4.625
37930SOL    HW215798  10.236   3.515   4.537
37931SOL     OW15799   9.700   2.542   4.192
37931SOL    HW115800   9.726   2.451   4.216
37931SOL    HW215801   9.606   2.542   4.217
37932SOL     OW15802  10.842   2.096   5.461
37932SOL    HW115803  10.829   2.109   5.558
37932SOL    HW215804  10.781   2.023   5.445
37933SOL     OW15805   9.941   1.991   3.820
37933SOL    HW115806  10.015   1.939   3.852
37933SOL    HW215807   9.898   1.931   3.756
37934SOL     OW15808  10.074   2.111   5.461
37934SOL    HW115809  10.152   2.053   5.474
37934SOL    HW215810  10.022   2.097   5.542
37935SOL     OW15811  10.198   3.402   4.917
37935SOL    HW115812  10.184   3.372   4.825
37935SOL    HW215813  10.251   3.331   4.955
37936SOL     OW15814  10.621   2.466   5.151
37936SOL    HW115815  10.662   2.426   5.230
37936SOL    HW215816  10.664   2.555   5.147
37937SOL     OW15817  10.133   3.266   4.658
37937SOL    HW115818  10.218   3.253   4.611
37937SOL    HW215819  10.070   3.275   4.585
37938SOL     OW15820  10.230   2.366   4.634
37938SOL    HW115821  10.224   2.366   4.536
37938SOL    HW215822  10.256   2.275   4.652
37939SOL     OW15823   9.874   1.912   4.228
37939SOL    HW115824   9.798   1.918   4.288
37939SOL    HW215825   9.857   1.986   4.166
37940SOL     OW15826  10.752   3.038   3.747
37940SOL    HW115827  10.776   2.971   3.814
37940SOL    HW215828  10.674   3.080   3.785
37941SOL     OW15829   9.584   1.904   3.912
37941SOL    HW115830   9.641   1.977   3.886
37941SOL    HW215831   9.649   1.840   3.947
37942SOL     OW15832  10.243   2.123   4.206
37942SOL    HW115833  10.226   2.170   4.124
37942SOL    HW215834  10.339   2.133   4.215
37943SOL     OW15835  10.361   2.542   5.192
37943SOL    HW115836  10.304   2.465   5.200
37943SOL    HW215837  10.451   2.506   5.187
37944SOL     OW15838  10.546   3.428   4.505
37944SOL    HW115839  10.551   3.500   4.441
37944SOL    HW215840  10.629   3.438   4.554
37945SOL     OW15841   9.787   3.033   4.461
37945SOL    HW115842   9.717   3.001   4.522
37945SOL    HW215843   9.749   3.006   4.375
37946SOL     OW15844  10.588   3.683   4.322
37946SOL    HW115845  10.636   3.745   4.263
37946SOL    HW215846  10.548   3.744   4.384
37947SOL     OW15847  10.338   2.390   3.760
37947SOL    HW115848  10.320   2.477   3.721
37947SOL    HW215849  10.417   2.404   3.813
37948SOL     OW15850   9.355   2.426   5.117
37948SOL    HW115851   9.449   2.405   5.102
37948SOL    HW215852   9.363   2.501   5.179
37949SOL     OW15853   9.862   2.115   4.895
37949SOL    HW115854   9.913   2.043   4.936
37949SOL    HW215855   9.771   2.095   4.927
37950SOL     OW15856  10.203   2.341   4.372
37950SOL    HW115857  10.140   2.381   4.311
37950SOL    HW215858  10.213   2.252   4.335
37951SOL     OW15859  10.301   1.951   4.480
37951SOL    HW115860  10.280   1.922   4.390
37951SOL    HW215861  10.298   1.867   4.529
37952SOL     OW15862  10.741   3.020   4.611
37952SOL    HW115863  10.708   2.933   4.637
37952SOL    HW215864  10.720   3.022   4.516
37953SOL     OW15865  10.764   2.474   4.710
37953SOL    HW115866  10.714   2.391   4.721
37953SOL    HW215867  10.853   2.447   4.735
37954SOL     OW15868   0.037   2.685   4.081
37954SOL    HW115869   0.071   2.648   4.164
37954SOL    HW215870   0.027   2.603   4.028
37955SOL     OW15871   9.803   3.284   3.849
37955SOL    HW115872   9.720   3.274   3.900
37955SOL    HW215873   9.780   3.238   3.767
37956SOL     OW15874  10.712   2.447   3.804
37956SOL    HW115875  10.652   2.420   3.877
37956SOL    HW215876  10.797   2.414   3.837
37957SOL     OW15877   9.820   2.090   4.041
37957SOL    HW115878   9.866   2.058   3.961
37957SOL    HW215879   9.797   2.180   4.013
37958SOL     OW15880  11.044   3.106   5.319
37958SOL    HW115881   0.029   3.063   5.310
37958SOL    HW215882  11.068   3.193   5.350
37959SOL     OW15883  10.373   3.213   5.058
37959SOL    HW115884  10.291   3.185   5.101
37959SOL    HW215885  10.440   3.163   5.110
37960SOL     OW15886  10.935   3.482   5.368
37960SOL    HW115887  10.940   3.521   5.281
37960SOL    HW215888  11.020   3.435   5.374
37961SOL     OW15889  10.444   3.071   4.817
37961SOL    HW115890  10.378   3.105   4.879
37961SOL    HW215891  10.424   3.119   4.736
37962SOL     OW15892  10.932   2.952   4.821
37962SOL    HW115893  10.916   3.013   4.895
37962SOL    HW215894  10.872   2.989   4.755
37963SOL     OW15895  10.224   1.955   5.128
37963SOL    HW115896  10.251   1.933   5.037
37963SOL    HW215897  10.304   1.999   5.162
37964SOL     OW15898  10.304   2.973   5.461
37964SOL    HW115899  10.215   3.002   5.487
37964SOL    HW215900  10.285   2.895   5.405
37965SOL     OW15901  10.063   2.897   4.098
37965SOL    HW115902   9.982   2.934   4.135
37965SOL    HW215903  10.101   2.862   4.180
37966SOL     OW15904   9.730   2.664   4.983
37966SOL    HW115905   9.800   2.661   5.052
37966SOL    HW215906   9.682   2.581   4.999
37967SOL     OW15907  10.592   2.247   4.996
37967SOL    HW115908  10.615   2.330   5.042
37967SOL    HW215909  10.498   2.260   4.975
37968SOL     OW15910   9.375   3.429   5.057
37968SOL    HW115911   9.360   3.521   5.034
37968SOL    HW215912   9.472   3.421   5.056
37969SOL     OW15913   9.680   2.962   4.227
37969SOL    HW115914   9.670   3.032   4.162
37969SOL    HW215915   9.645   2.886   4.178
37970SOL     OW15916   9.850   2.398   4.568
37970SOL    HW115917   9.877   2.461   4.499
37970SOL    HW215918   9.919   2.410   4.634
37971SOL     OW15919  10.547   3.251   4.087
37971SOL    HW115920  10.602   3.316   4.135
37971SOL    HW215921  10.461   3.267   4.132
37972SOL     OW15922  10.605   3.327   4.896
37972SOL    HW115923  10.673   3.328   4.966
37972SOL    HW215924  10.545   3.257   4.926
37973SOL     OW15925  10.898   2.510   4.192
37973SOL    HW115926  10.844   2.539   4.266
37973SOL    HW215927  10.950   2.589   4.175
37974SOL     OW15928   9.647   3.379   5.038
37974SOL    HW115929   9.636   3.339   4.949
37974SOL    HW215930   9.742   3.400   5.036
37975SOL     OW15931   9.747   2.591   5.347
37975SOL    HW115932   9.801   2.637   5.280
37975SOL    HW215933   9.780   2.501   5.342
37976SOL     OW15934  10.922   2.626   5.389
37976SOL    HW115935  10.835   2.670   5.397
37976SOL    HW215936  10.968   2.688   5.329
37977SOL     OW15937  10.303   1.971   5.472
37977SOL    HW115938  10.354   2.049   5.446
37977SOL    HW215939  10.354   1.899   5.431
37978SOL     OW15940   9.806   1.873   5.479
37978SOL    HW115941   9.766   1.814   5.412
37978SOL    HW215942   9.743   1.948   5.479
37979SOL     OW15943   9.886   2.755   4.768
37979SOL    HW115944   9.921   2.844   4.780
37979SOL    HW215945   9.842   2.736   4.853
37980SOL     OW15946  10.686   2.745   4.740
37980SOL    HW115947  10.598   2.707   4.729
37980SOL    HW215948  10.739   2.664   4.746
37981SOL     OW15949  10.533   2.378   4.001
37981SOL    HW115950  10.533   2.295   4.053
37981SOL    HW215951  10.502   2.441   4.067
37982SOL     OW15952   9.607   2.057   4.975
37982SOL    HW115953   9.559   2.092   5.053
37982SOL    HW215954   9.575   1.965   4.973
37983SOL     OW15955   9.360   3.161   5.005
37983SOL    HW115956   9.380   3.104   5.082
37983SOL    HW215957   9.352   3.250   5.042
37984SOL     OW15958  10.043   2.507   4.784
37984SOL    HW115959  10.114   2.475   4.725
37984SOL    HW215960  10.017   2.594   4.749
37985SOL     OW15961   9.617   1.925   4.334
37985SOL    HW115962   9.593   2.018   4.350
37985SOL    HW215963   9.619   1.889   4.424
37986SOL     OW15964  10.940   2.249   4.069
37986SOL    HW115965  10.972   2.175   4.123
37986SOL    HW215966  10.914   2.315   4.136
37987SOL     OW15967  10.358   2.598   4.681
37987SOL    HW115968  10.345   2.613   4.777
37987SOL    HW215969  10.322   2.507   4.672
37988SOL     OW15970  10.293   3.425   5.436
37988SOL    HW115971  10.289   3.477   5.354
37988SOL    HW215972  10.322   3.338   5.404
37989SOL     OW15973   9.662   2.757   5.531
37989SOL    HW115974   9.744   2.779   5.577
37989SOL    HW215975   9.691   2.684   5.471
37990SOL     OW15976  10.802   2.137   3.855
37990SOL    HW115977  10.750   2.062   3.891
37990SOL    HW215978  10.850   2.169   3.933
37991SOL     OW15979  10.586   2.688   3.753
37991SOL    HW115980  10.646   2.613   3.769
37991SOL    HW215981  10.619   2.721   3.667
37992SOL     OW15982  10.382   3.216   4.577
37992SOL    HW115983  10.390   3.143   4.513
37992SOL    HW215984  10.448   3.281   4.549
37993SOL     OW15985   9.607   2.669   4.716
37993SOL    HW115986   9.703   2.687   4.713
37993SOL    HW215987   9.607   2.576   4.742
37994SOL     OW15988   9.639   2.396   4.736
37994SOL    HW115989   9.607   2.305   4.722
37994SOL    HW215990   9.704   2.404   4.663
37995SOL     OW15991  10.453   2.234   5.401
37995SOL    HW115992  10.408   2.285   5.471
37995SOL    HW215993  10.542   2.273   5.401
37996SOL     OW15994  10.464   2.059   5.194
37996SOL    HW115995  10.466   2.126   5.265
37996SOL    HW215996  10.501   2.109   5.119
37997SOL     OW15997   9.311   3.181   3.920
37997SOL    HW115998   9.219   3.195   3.888
37997SOL    HW215999   9.308   3.089   3.952
37998SOL     OW16000   9.404   3.639   4.664
37998SOL    HW116001   9.379   3.568   4.601
37998SOL    HW216002   9.494   3.661   4.633
37999SOL     OW16003   9.792   3.450   4.646
37999SOL    HW116004   9.861   3.517   4.660
37999SOL    HW216005   9.840   3.384   4.593
38000SOL     OW16006  10.299   2.632   4.940
38000SOL    HW116007  10.342   2.602   5.022
38000SOL    HW216008  10.206   2.616   4.961
38001SOL     OW16009   9.334   2.374   4.830
38001SOL    HW116010   9.415   2.367   4.778
38001SOL    HW216011   9.368   2.399   4.916
38002SOL     OW16012   9.535   2.377   5.447
38002SOL    HW116013   9.591   2.335   5.379
38002SOL    HW216014   9.490   2.446   5.396
38003SOL     OW16015  10.697   2.783   5.385
38003SOL    HW116016  10.706   2.878   5.399
38003SOL    HW216017  10.679   2.778   5.290
38004SOL     OW16018  10.116   2.446   4.087
38004SOL    HW116019  10.121   2.367   4.030
38004SOL    HW216020  10.029   2.482   4.066
38005SOL     OW16021   9.559   3.404   5.448
38005SOL    HW116022   9.548   3.469   5.518
38005SOL    HW216023   9.565   3.321   5.498
38006SOL     OW16024   9.999   2.334   4.992
38006SOL    HW116025   9.950   2.260   4.953
38006SOL    HW216026  10.000   2.400   4.919
38007SOL     OW16027  10.244   3.559   5.205
38007SOL    HW116028  10.220   3.524   5.119
38007SOL    HW216029  10.233   3.655   5.192
38008SOL     OW16030   9.758   2.333   3.925
38008SOL    HW116031   9.819   2.407   3.931
38008SOL    HW216032   9.673   2.380   3.922
38009SOL     OW16033   9.426   2.987   5.195
38009SOL    HW116034   9.433   2.930   5.275
38009SOL    HW216035   9.447   2.924   5.123
38010SOL     OW16036  10.619   2.913   4.942
38010SOL    HW116037  10.644   2.859   4.865
38010SOL    HW216038  10.558   2.979   4.901
38011SOL     OW16039  10.630   2.723   4.028
38011SOL    HW116040  10.555   2.686   4.076
38011SOL    HW216041  10.599   2.723   3.935
38012SOL     OW16042  11.039   3.609   4.843
38012SOL    HW116043   0.016   3.631   4.788
38012SOL    HW216044  11.029   3.514   4.825
38013SOL     OW16045  10.562   3.588   4.837
38013SOL    HW116046  10.646   3.604   4.790
38013SOL    HW216047  10.566   3.492   4.854
38014SOL     OW16048   9.417   3.113   4.753
38014SOL    HW116049   9.391   3.131   4.847
38014SOL    HW216050   9.333   3.082   4.717
38015SOL     OW16051  10.004   3.500   5.464
38015SOL    HW116052   9.963   3.585   5.447
38015SOL    HW216053  10.096   3.513   5.435
38016SOL     OW16054  11.041   1.994   4.269
38016SOL    HW116055  11.089   1.988   4.184
38016SOL    HW216056  11.038   1.902   4.301
38017SOL     OW16057  10.684   3.444   4.222
38017SOL    HW116058  10.743   3.464   4.147
38017SOL    HW216059  10.647   3.531   4.246
38018SOL     OW16060   9.467   3.661   5.548
38018SOL    HW116061   9.426   3.587   5.597
38018SOL    HW216062   9.507   3.710   5.621
38019SOL     OW16063  10.573   2.789   4.402
38019SOL    HW116064  10.650   2.730   4.416
38019SOL    HW216065  10.614   2.863   4.354
38020SOL     OW16066  10.099   3.117   5.139
38020SOL    HW116067  10.076   3.167   5.221
38020SOL    HW216068  10.020   3.132   5.086
38021SOL     OW16069   9.972   3.492   3.876
38021SOL    HW116070   9.985   3.503   3.780
38021SOL    HW216071   9.917   3.410   3.875
38022SOL     OW16072   9.571   2.182   4.422
38022SOL    HW116073   9.488   2.232   4.413
38022SOL    HW216074   9.589   2.187   4.517
38023SOL     OW16075  10.502   3.500   3.753
38023SOL    HW116076  10.510   3.405   3.767
38023SOL    HW216077  10.439   3.505   3.679
38024SOL     OW16078  10.141   2.864   5.084
38024SOL    HW116079  10.190   2.876   5.002
38024SOL    HW216080  10.131   2.956   5.115
38025SOL     OW16081  10.825   3.463   3.757
38025SOL    HW116082  10.732   3.484   3.745
38025SOL    HW216083  10.862   3.469   3.667
38026SOL     OW16084   9.654   3.139   5.211
38026SOL    HW116085   9.639   3.209   5.144
38026SOL    HW216086   9.575   3.084   5.203
38027SOL     OW16087  10.880   3.156   5.002
38027SOL    HW116088  10.950   3.142   5.067
38027SOL    HW216089  10.829   3.229   5.044
38028SOL     OW16090  10.367   2.967   4.449
38028SOL    HW116091  10.297   2.916   4.495
38028SOL    HW216092  10.438   2.901   4.440
38029SOL     OW16093  10.332   2.090   4.710
38029SOL    HW116094  10.314   2.045   4.624
38029SOL    HW216095  10.344   2.013   4.769
38030SOL     OW16096   9.921   3.339   4.207
38030SOL    HW116097   9.965   3.311   4.125
38030SOL    HW216098   9.837   3.374   4.177
38031SOL     OW16099   9.563   3.247   3.995
38031SOL    HW116100   9.468   3.225   3.982
38031SOL    HW216101   9.566   3.267   4.091
38032SOL     OW16102   9.442   2.857   5.421
38032SOL    HW116103   9.369   2.851   5.486
38032SOL    HW216104   9.520   2.829   5.473
38033SOL     OW16105   9.977   2.041   5.214
38033SOL    HW116106  10.064   2.007   5.186
38033SOL    HW216107  10.000   2.081   5.300
38034SOL     OW16108   9.400   2.205   3.762
38034SOL    HW116109   9.310   2.196   3.728
38034SOL    HW216110   9.435   2.277   3.708
38035SOL     OW16111  10.717   2.721   5.110
38035SOL    HW116112  10.671   2.782   5.050
38035SOL    HW216113  10.810   2.737   5.087
38036SOL     OW16114   9.357   2.033   4.032
38036SOL    HW116115   9.362   2.118   3.984
38036SOL    HW216116   9.440   1.991   4.003
38037SOL     OW16117  10.502   3.200   3.827
38037SOL    HW116118  10.406   3.187   3.829
38037SOL    HW216119  10.522   3.215   3.922
38038SOL     OW16120   9.928   2.679   5.159
38038SOL    HW116121   9.985   2.756   5.147
38038SOL    HW216122   9.996   2.610   5.174
38039SOL     OW16123  10.797   3.624   4.683
38039SOL    HW116124  10.829   3.672   4.606
38039SOL    HW216125  10.876   3.624   4.740
38040SOL     OW16126  10.056   2.391   5.445
38040SOL    HW116127  10.088   2.455   5.511
38040SOL    HW216128  10.082   2.305   5.480
38041SOL     OW16129  10.780   3.057   5.344
38041SOL    HW116130  10.763   3.060   5.441
38041SOL    HW216131  10.876   3.073   5.343
38042SOL     OW16132   9.679   3.593   5.280
38042SOL    HW116133   9.593   3.636   5.264
38042SOL    HW216134   9.651   3.509   5.320
38043SOL     OW16135  11.002   2.730   4.960
38043SOL    HW116136  11.009   2.655   4.899
38043SOL    HW216137  10.969   2.802   4.904
38044SOL     OW16138  10.507   2.178   4.198
38044SOL    HW116139  10.580   2.115   4.181
38044SOL    HW216140  10.545   2.230   4.271
38045SOL     OW16141   9.897   2.604   4.379
38045SOL    HW116142   9.910   2.700   4.385
38045SOL    HW216143   9.821   2.596   4.318
38046SOL     OW16144  11.060   2.240   5.354
38046SOL    HW116145  11.018   2.299   5.289
38046SOL    HW216146  10.985   2.195   5.396
38047SOL     OW16147  11.043   2.790   5.216
38047SOL    HW116148  11.038   2.886   5.212
38047SOL    HW216149  11.034   2.763   5.123
38048SOL     OW16150  10.178   3.224   3.753
38048SOL    HW116151  10.152   3.242   3.845
38048SOL    HW216152  10.197   3.312   3.716
38049SOL     OW16153   9.961   3.657   4.639
38049SOL    HW116154   9.946   3.752   4.628
38049SOL    HW216155  10.057   3.651   4.650
38050SOL     OW16156  10.187   2.807   4.572
38050SOL    HW116157  10.239   2.734   4.611
38050SOL    HW216158  10.163   2.860   4.650
38051SOL     OW16159  10.403   2.859   3.836
38051SOL    HW116160  10.374   2.910   3.757
38051SOL    HW216161  10.477   2.809   3.798
38052SOL     OW16162   0.056   3.410   4.567
38052SOL    HW116163  11.074   3.393   4.523
38052SOL    HW216164   0.065   3.333   4.625
38053SOL     OW16165   9.547   3.178   5.589
38053SOL    HW116166   9.471   3.124   5.568
38053SOL    HW216167   9.536   3.190   5.685
38054SOL     OW16168   9.401   3.114   4.387
38054SOL    HW116169   9.396   3.052   4.461
38054SOL    HW216170   9.488   3.095   4.350
38055SOL     OW16171   9.991   3.256   5.341
38055SOL    HW116172   9.911   3.208   5.372
38055SOL    HW216173   9.979   3.343   5.384
38056SOL     OW16174   0.010   2.043   4.921
38056SOL    HW116175   0.018   1.962   4.971
38056SOL    HW216176  11.093   2.010   4.832
38057SOL     OW16177   9.761   2.286   4.254
38057SOL    HW116178   9.795   2.209   4.208
38057SOL    HW216179   9.702   2.248   4.322
38058SOL     OW16180  10.986   3.347   4.813
38058SOL    HW116181  10.907   3.319   4.764
38058SOL    HW216182  10.988   3.282   4.885
38059SOL     OW16183   9.633   2.389   5.010
38059SOL    HW116184   9.708   2.352   5.059
38059SOL    HW216185   9.655   2.371   4.917
38060SOL     OW16186  10.137   3.456   4.398
38060SOL    HW116187  10.126   3.524   4.329
38060SOL    HW216188  10.049   3.418   4.404
38061SOL     OW16189  10.725   2.106   4.810
38061SOL    HW116190  10.758   2.026   4.851
38061SOL    HW216191  10.689   2.155   4.887
38062SOL     OW16192  10.331   1.865   4.877
38062SOL    HW116193  10.279   1.788   4.852
38062SOL    HW216194  10.423   1.830   4.873
38063SOL     OW16195  10.107   3.204   4.036
38063SOL    HW116196  10.083   3.111   4.040
38063SOL    HW216197  10.173   3.212   4.107
38064SOL     OW16198   9.911   3.422   4.996
38064SOL    HW116199   9.912   3.507   5.044
38064SOL    HW216200  10.004   3.418   4.968
38065SOL     OW16201  10.664   1.909   3.936
38065SOL    HW116202  10.694   1.844   3.870
38065SOL    HW216203  10.576   1.870   3.959
38066SOL     OW16204  10.621   2.335   4.398
38066SOL    HW116205  10.557   2.409   4.397
38066SOL    HW216206  10.603   2.294   4.485
38067SOL     OW16207  10.922   2.088   4.580
38067SOL    HW116208  10.865   2.044   4.644
38067SOL    HW216209  10.863   2.152   4.542
38068SOL     OW16210   9.359   2.933   4.032
38068SOL    HW116211   9.449   2.928   3.996
38068SOL    HW216212   9.341   2.839   4.054
38069SOL     OW16213  10.193   3.512   4.061
38069SOL    HW116214  10.117   3.497   4.002
38069SOL    HW216215  10.166   3.590   4.113
38070SOL     OW16216   9.543   2.496   5.726
38070SOL    HW116217   9.449   2.481   5.747
38070SOL    HW216218   9.551   2.474   5.632
38071SOL     OW16219   9.537   2.143   6.592
38071SOL    HW116220   9.564   2.117   6.682
38071SOL    HW216221   9.453   2.094   6.582
38072SOL     OW16222   9.310   2.267   6.218
38072SOL    HW116223   9.231   2.270   6.273
38072SOL    HW216224   9.300   2.182   6.172
38073SOL     OW16225   9.878   3.158   6.778
38073SOL    HW116226   9.794   3.162   6.731
38073SOL    HW216227   9.890   3.250   6.806
38074SOL     OW16228  10.890   3.372   6.288
38074SOL    HW116229  10.850   3.343   6.372
38074SOL    HW216230  10.820   3.353   6.222
38075SOL     OW16231  10.452   2.549   6.287
38075SOL    HW116232  10.483   2.640   6.275
38075SOL    HW216233  10.410   2.556   6.374
38076SOL     OW16234  11.078   2.465   5.818
38076SOL    HW116235  11.053   2.459   5.723
38076SOL    HW216236  11.033   2.388   5.856
38077SOL     OW16237  10.044   3.016   6.621
38077SOL    HW116238   9.983   3.065   6.679
38077SOL    HW216239  10.085   3.090   6.571
38078SOL     OW16240  10.181   2.614   7.387
38078SOL    HW116241  10.155   2.673   7.459
38078SOL    HW216242  10.199   2.676   7.313
38079SOL     OW16243   9.997   2.886   6.249
38079SOL    HW116244  10.060   2.858   6.317
38079SOL    HW216245   9.933   2.938   6.300
38080SOL     OW16246  10.023   3.016   7.387
38080SOL    HW116247  10.069   3.097   7.417
38080SOL    HW216248   9.940   3.052   7.349
38081SOL     OW16249   9.632   3.284   6.658
38081SOL    HW116250   9.559   3.239   6.611
38081SOL    HW216251   9.678   3.333   6.588
38082SOL     OW16252  10.766   3.361   6.975
38082SOL    HW116253  10.799   3.452   6.982
38082SOL    HW216254  10.688   3.366   7.033
38083SOL     OW16255   9.539   3.582   6.055
38083SOL    HW116256   9.584   3.654   6.103
38083SOL    HW216257   9.594   3.576   5.976
38084SOL     OW16258  10.438   3.207   7.258
38084SOL    HW116259  10.482   3.207   7.344
38084SOL    HW216260  10.386   3.124   7.263
38085SOL     OW16261   9.568   3.296   6.125
38085SOL    HW116262   9.558   3.393   6.127
38085SOL    HW216263   9.497   3.267   6.183
38086SOL     OW16264   9.577   2.951   6.492
38086SOL    HW116265   9.576   2.879   6.557
38086SOL    HW216266   9.523   3.018   6.536
38087SOL     OW16267   9.911   3.654   6.998
38087SOL    HW116268   9.831   3.632   7.050
38087SOL    HW216269   9.930   3.746   7.026
38088SOL     OW16270   9.883   2.857   5.701
38088SOL    HW116271   9.934   2.907   5.634
38088SOL    HW216272   9.924   2.890   5.783
38089SOL     OW16273  10.891   1.970   7.069
38089SOL    HW116274  10.954   2.010   7.008
38089SOL    HW216275  10.922   1.998   7.156
38090SOL     OW16276   9.428   2.517   6.152
38090SOL    HW116277   9.396   2.427   6.170
38090SOL    HW216278   9.420   2.561   6.239
38091SOL     OW16279   9.384   3.467   5.708
38091SOL    HW116280   9.364   3.374   5.726
38091SOL    HW216281   9.344   3.512   5.784
38092SOL     OW16282  10.994   2.833   6.196
38092SOL    HW116283  11.064   2.776   6.229
38092SOL    HW216284  11.024   2.853   6.107
38093SOL     OW16285   9.430   2.608   7.162
38093SOL    HW116286   9.524   2.630   7.166
38093SOL    HW216287   9.393   2.685   7.208
38094SOL     OW16288   9.909   3.267   6.354
38094SOL    HW116289   9.867   3.178   6.361
38094SOL    HW216290   9.900   3.281   6.258
38095SOL     OW16291  10.594   3.092   7.018
38095SOL    HW116292  10.617   3.022   6.956
38095SOL    HW216293  10.665   3.085   7.086
38096SOL     OW16294  10.144   1.868   6.082
38096SOL    HW116295  10.174   1.961   6.077
38096SOL    HW216296  10.047   1.878   6.091
38097SOL     OW16297   9.485   2.822   6.857
38097SOL    HW116298   9.578   2.810   6.832
38097SOL    HW216299   9.440   2.763   6.795
38098SOL     OW16300  10.837   2.861   5.787
38098SOL    HW116301  10.769   2.810   5.836
38098SOL    HW216302  10.915   2.848   5.841
38099SOL     OW16303  10.495   3.673   7.183
38099SOL    HW116304  10.492   3.736   7.110
38099SOL    HW216305  10.515   3.589   7.138
38100SOL     OW16306   9.640   2.134   7.359
38100SOL    HW116307   9.693   2.166   7.433
38100SOL    HW216308   9.551   2.138   7.399
38101SOL     OW16309  10.756   3.280   6.538
38101SOL    HW116310  10.693   3.299   6.611
38101SOL    HW216311  10.741   3.185   6.522
38102SOL     OW16312  10.979   3.593   6.165
38102SOL    HW116313  10.953   3.540   6.089
38102SOL    HW216314  10.968   3.529   6.238
38103SOL     OW16315   9.894   2.570   5.844
38103SOL    HW116316   9.901   2.662   5.815
38103SOL    HW216317   9.819   2.572   5.907
38104SOL     OW16318  10.569   2.221   6.501
38104SOL    HW116319  10.485   2.175   6.516
38104SOL    HW216320  10.626   2.177   6.567
38105SOL     OW16321  10.867   3.495   5.880
38105SOL    HW116322  10.931   3.567   5.883
38105SOL    HW216323  10.847   3.492   5.784
38106SOL     OW16324  10.099   2.487   7.040
38106SOL    HW116325  10.087   2.451   7.131
38106SOL    HW216326  10.050   2.422   6.986
38107SOL     OW16327  10.701   2.337   7.264
38107SOL    HW116328  10.704   2.397   7.340
38107SOL    HW216329  10.780   2.283   7.274
38108SOL     OW16330  10.265   2.758   7.167
38108SOL    HW116331  10.301   2.673   7.134
38108SOL    HW216332  10.216   2.788   7.088
38109SOL     OW16333  10.319   2.265   6.830
38109SOL    HW116334  10.234   2.268   6.874
38109SOL    HW216335  10.301   2.217   6.748
38110SOL     OW16336  10.350   2.549   6.000
38110SOL    HW116337  10.362   2.562   6.096
38110SOL    HW216338  10.263   2.504   5.996
38111SOL     OW16339   9.403   2.668   6.392
38111SOL    HW116340   9.483   2.686   6.443
38111SOL    HW216341   9.349   2.746   6.413
38112SOL     OW16342   9.412   3.710   7.151
38112SOL    HW116343   9.426   3.684   7.245
38112SOL    HW216344   9.318   3.696   7.140
38113SOL     OW16345  10.200   2.237   5.789
38113SOL    HW116346  10.238   2.302   5.726
38113SOL    HW216347  10.243   2.157   5.759
38114SOL     OW16348  11.017   2.449   7.410
38114SOL    HW116349  10.984   2.525   7.357
38114SOL    HW216350  11.025   2.381   7.340
38115SOL     OW16351  10.678   3.035   6.156
38115SOL    HW116352  10.737   3.024   6.080
38115SOL    HW216353  10.610   3.093   6.121
38116SOL     OW16354   9.855   2.065   6.480
38116SOL    HW116355   9.860   2.078   6.576
38116SOL    HW216356   9.848   2.156   6.447
38117SOL     OW16357  10.330   3.317   6.076
38117SOL    HW116358  10.293   3.382   6.014
38117SOL    HW216359  10.307   3.356   6.162
38118SOL     OW16360   9.655   3.666   6.446
38118SOL    HW116361   9.693   3.578   6.464
38118SOL    HW216362   9.730   3.723   6.469
38119SOL     OW16363  11.079   2.891   6.472
38119SOL    HW116364  11.037   2.925   6.391
38119SOL    HW216365  11.010   2.891   6.539
38120SOL     OW16366  10.527   3.407   7.085
38120SOL    HW116367  10.511   3.333   7.147
38120SOL    HW216368  10.474   3.379   7.009
38121SOL     OW16369   9.623   2.801   5.843
38121SOL    HW116370   9.706   2.825   5.800
38121SOL    HW216371   9.595   2.725   5.791
38122SOL     OW16372  10.766   2.627   6.312
38122SOL    HW116373  10.761   2.571   6.391
38122SOL    HW216374  10.854   2.665   6.316
38123SOL     OW16375   9.777   3.131   7.308
38123SOL    HW116376   9.730   3.139   7.222
38123SOL    HW216377   9.701   3.134   7.369
38124SOL     OW16378  10.431   3.632   5.828
38124SOL    HW116379  10.357   3.581   5.864
38124SOL    HW216380  10.453   3.585   5.745
38125SOL     OW16381   9.482   2.154   7.095
38125SOL    HW116382   9.396   2.191   7.121
38125SOL    HW216383   9.475   2.065   7.133
38126SOL     OW16384   9.768   3.606   5.900
38126SOL    HW116385   9.818   3.651   5.971
38126SOL    HW216386   9.838   3.566   5.846
38127SOL     OW16387  10.728   1.986   6.040
38127SOL    HW116388  10.716   1.948   5.950
38127SOL    HW216389  10.822   1.973   6.057
38128SOL     OW16390   9.565   3.655   6.809
38128SOL    HW116391   9.612   3.580   6.849
38128SOL    HW216392   9.540   3.621   6.723
38129SOL     OW16393  10.288   3.557   6.468
38129SOL    HW116394  10.369   3.503   6.477
38129SOL    HW216395  10.237   3.508   6.401
38130SOL     OW16396   9.704   2.542   6.046
38130SOL    HW116397   9.721   2.449   6.071
38130SOL    HW216398   9.610   2.551   6.069
38131SOL     OW16399  10.873   2.065   7.336
38131SOL    HW116400  10.841   2.090   7.426
38131SOL    HW216401  10.798   2.012   7.304
38132SOL     OW16402   9.933   1.989   5.684
38132SOL    HW116403  10.008   1.934   5.708
38132SOL    HW216404   9.887   1.935   5.616
38133SOL     OW16405  10.071   2.119   7.324
38133SOL    HW116406  10.150   2.062   7.330
38133SOL    HW216407  10.026   2.096   7.407
38134SOL     OW16408  10.189   3.396   6.783
38134SOL    HW116409  10.182   3.373   6.689
38134SOL    HW216410  10.251   3.330   6.817
38135SOL     OW16411  10.627   2.468   7.021
38135SOL    HW116412  10.673   2.421   7.093
38135SOL    HW216413  10.684   2.545   7.005
38136SOL     OW16414  10.132   3.265   6.522
38136SOL    HW116415  10.218   3.256   6.476
38136SOL    HW216416  10.068   3.268   6.448
38137SOL     OW16417  10.233   2.363   6.504
38137SOL    HW116418  10.213   2.361   6.407
38137SOL    HW216419  10.261   2.272   6.519
38138SOL     OW16420   9.872   1.908   6.091
38138SOL    HW116421   9.798   1.921   6.154
38138SOL    HW216422   9.856   1.982   6.028
38139SOL     OW16423  10.751   3.032   5.604
38139SOL    HW116424  10.779   2.964   5.670
38139SOL    HW216425  10.674   3.071   5.648
38140SOL     OW16426   9.586   1.906   5.774
38140SOL    HW116427   9.645   1.980   5.754
38140SOL    HW216428   9.648   1.844   5.816
38141SOL     OW16429  10.239   2.122   6.081
38141SOL    HW116430  10.218   2.167   5.997
38141SOL    HW216431  10.336   2.134   6.083
38142SOL     OW16432  10.368   2.540   7.056
38142SOL    HW116433  10.314   2.460   7.054
38142SOL    HW216434  10.459   2.506   7.052
38143SOL     OW16435  10.554   3.430   6.394
38143SOL    HW116436  10.559   3.495   6.323
38143SOL    HW216437  10.644   3.432   6.431
38144SOL     OW16438   9.785   3.034   6.330
38144SOL    HW116439   9.715   2.997   6.387
38144SOL    HW216440   9.749   3.013   6.241
38145SOL     OW16441  10.546   3.681   6.174
38145SOL    HW116442  10.602   3.730   6.111
38145SOL    HW216443  10.539   3.745   6.246
38146SOL     OW16444  10.341   2.399   5.613
38146SOL    HW116445  10.297   2.480   5.582
38146SOL    HW216446  10.412   2.433   5.669
38147SOL     OW16447   9.353   2.436   6.974
38147SOL    HW116448   9.449   2.420   6.966
38147SOL    HW216449   9.352   2.506   7.042
38148SOL     OW16450   9.879   2.088   6.753
38148SOL    HW116451   9.924   2.009   6.786
38148SOL    HW216452   9.789   2.077   6.788
38149SOL     OW16453  10.184   2.332   6.250
38149SOL    HW116454  10.144   2.381   6.177
38149SOL    HW216455  10.201   2.246   6.210
38150SOL     OW16456  10.368   1.935   6.351
38150SOL    HW116457  10.325   1.926   6.265
38150SOL    HW216458  10.332   1.858   6.399
38151SOL     OW16459  10.736   3.017   6.472
38151SOL    HW116460  10.679   2.940   6.481
38151SOL    HW216461  10.728   3.036   6.377
38152SOL     OW16462  10.775   2.448   6.588
38152SOL    HW116463  10.712   2.375   6.589
38152SOL    HW216464  10.858   2.405   6.611
38153SOL     OW16465  11.097   2.684   5.970
38153SOL    HW116466   0.053   2.639   6.035
38153SOL    HW216467  11.096   2.616   5.899
38154SOL     OW16468   9.803   3.299   5.728
38154SOL    HW116469   9.720   3.286   5.777
38154SOL    HW216470   9.788   3.247   5.648
38155SOL     OW16471  10.714   2.451   5.657
38155SOL    HW116472  10.653   2.423   5.727
38155SOL    HW216473  10.800   2.431   5.695
38156SOL     OW16474   9.825   2.091   5.906
38156SOL    HW116475   9.869   2.059   5.824
38156SOL    HW216476   9.797   2.180   5.876
38157SOL     OW16477  11.035   3.085   7.192
38157SOL    HW116478   0.028   3.058   7.188
38157SOL    HW216479  11.039   3.178   7.167
38158SOL     OW16480  10.371   3.211   6.921
38158SOL    HW116481  10.293   3.168   6.961
38158SOL    HW216482  10.444   3.169   6.972
38159SOL     OW16483  10.932   3.478   7.230
38159SOL    HW116484  10.934   3.543   7.159
38159SOL    HW216485  11.024   3.452   7.237
38160SOL     OW16486  10.441   3.076   6.676
38160SOL    HW116487  10.376   3.109   6.739
38160SOL    HW216488  10.418   3.123   6.594
38161SOL     OW16489  10.915   2.917   6.699
38161SOL    HW116490  10.904   2.990   6.763
38161SOL    HW216491  10.865   2.953   6.624
38162SOL     OW16492  10.228   1.972   6.971
38162SOL    HW116493  10.257   1.937   6.884
38162SOL    HW216494  10.313   2.006   7.007
38163SOL     OW16495  10.302   2.980   7.321
38163SOL    HW116496  10.211   3.003   7.345
38163SOL    HW216497  10.289   2.905   7.260
38164SOL     OW16498  10.018   2.920   5.934
38164SOL    HW116499  10.015   2.906   6.030
38164SOL    HW216500  10.091   2.860   5.908
38165SOL     OW16501   9.742   2.666   6.846
38165SOL    HW116502   9.810   2.667   6.916
38165SOL    HW216503   9.696   2.583   6.862
38166SOL     OW16504  10.591   2.250   6.868
38166SOL    HW116505  10.613   2.332   6.917
38166SOL    HW216506  10.498   2.265   6.844
38167SOL     OW16507   9.380   3.435   6.921
38167SOL    HW116508   9.375   3.526   6.889
38167SOL    HW216509   9.476   3.416   6.918
38168SOL     OW16510   9.685   2.971   6.090
38168SOL    HW116511   9.701   3.032   6.018
38168SOL    HW216512   9.661   2.890   6.042
38169SOL     OW16513   9.843   2.404   6.426
38169SOL    HW116514   9.861   2.469   6.354
38169SOL    HW216515   9.926   2.407   6.475
38170SOL     OW16516  10.557   3.245   5.949
38170SOL    HW116517  10.608   3.310   6.001
38170SOL    HW216518  10.470   3.251   5.993
38171SOL     OW16519  10.598   3.337   6.759
38171SOL    HW116520  10.666   3.335   6.828
38171SOL    HW216521  10.540   3.263   6.784
38172SOL     OW16522  10.900   2.496   6.067
38172SOL    HW116523  10.834   2.547   6.116
38172SOL    HW216524  10.962   2.564   6.039
38173SOL     OW16525   9.647   3.388   6.897
38173SOL    HW116526   9.638   3.341   6.811
38173SOL    HW216527   9.744   3.400   6.899
38174SOL     OW16528   9.756   2.583   7.222
38174SOL    HW116529   9.796   2.634   7.149
38174SOL    HW216530   9.826   2.519   7.241
38175SOL     OW16531  10.928   2.631   7.245
38175SOL    HW116532  10.840   2.672   7.251
38175SOL    HW216533  10.971   2.686   7.178
38176SOL     OW16534  10.298   1.970   7.319
38176SOL    HW116535  10.359   2.044   7.308
38176SOL    HW216536  10.354   1.896   7.290
38177SOL     OW16537   9.792   1.921   7.289
38177SOL    HW116538   9.782   1.828   7.261
38177SOL    HW216539   9.709   1.936   7.337
38178SOL     OW16540   9.884   2.766   6.623
38178SOL    HW116541   9.931   2.851   6.632
38178SOL    HW216542   9.846   2.751   6.712
38179SOL     OW16543  10.702   2.714   6.609
38179SOL    HW116544  10.610   2.695   6.586
38179SOL    HW216545  10.739   2.623   6.610
38180SOL     OW16546  10.532   2.389   5.861
38180SOL    HW116547  10.538   2.312   5.920
38180SOL    HW216548  10.472   2.447   5.910
38181SOL     OW16549   9.627   2.058   6.847
38181SOL    HW116550   9.565   2.079   6.919
38181SOL    HW216551   9.608   1.963   6.831
38182SOL     OW16552   9.352   3.174   6.870
38182SOL    HW116553   9.369   3.130   6.955
38182SOL    HW216554   9.352   3.269   6.893
38183SOL     OW16555  10.043   2.508   6.663
38183SOL    HW116556  10.108   2.467   6.603
38183SOL    HW216557  10.013   2.588   6.616
38184SOL     OW16558   9.618   1.930   6.200
38184SOL    HW116559   9.587   2.019   6.226
38184SOL    HW216560   9.619   1.882   6.284
38185SOL     OW16561  10.919   2.255   5.931
38185SOL    HW116562  10.954   2.188   5.991
38185SOL    HW216563  10.902   2.330   5.990
38186SOL     OW16564  10.356   2.599   6.543
38186SOL    HW116565  10.348   2.617   6.639
38186SOL    HW216566  10.322   2.507   6.538
38187SOL     OW16567  10.284   3.426   7.295
38187SOL    HW116568  10.291   3.479   7.213
38187SOL    HW216569  10.321   3.340   7.266
38188SOL     OW16570   9.660   2.771   7.387
38188SOL    HW116571   9.741   2.799   7.432
38188SOL    HW216572   9.689   2.690   7.340
38189SOL     OW16573  10.805   2.134   5.719
38189SOL    HW116574  10.749   2.066   5.759
38189SOL    HW216575  10.845   2.178   5.797
38190SOL     OW16576  10.592   2.694   5.615
38190SOL    HW116577  10.649   2.617   5.629
38190SOL    HW216578  10.622   2.724   5.527
38191SOL     OW16579  10.384   3.221   6.438
38191SOL    HW116580  10.394   3.147   6.375
38191SOL    HW216581  10.457   3.282   6.417
38192SOL     OW16582   9.592   2.684   6.595
38192SOL    HW116583   9.685   2.705   6.580
38192SOL    HW216584   9.597   2.588   6.608
38193SOL     OW16585   9.629   2.403   6.585
38193SOL    HW116586   9.603   2.310   6.570
38193SOL    HW216587   9.699   2.414   6.518
38194SOL     OW16588  10.452   2.235   7.264
38194SOL    HW116589  10.410   2.282   7.337
38194SOL    HW216590  10.545   2.266   7.270
38195SOL     OW16591  10.467   2.064   7.049
38195SOL    HW116592  10.473   2.128   7.123
38195SOL    HW216593  10.515   2.112   6.980
38196SOL     OW16594   9.317   3.192   5.776
38196SOL    HW116595   9.225   3.208   5.746
38196SOL    HW216596   9.313   3.100   5.808
38197SOL     OW16597   9.404   3.642   6.535
38197SOL    HW116598   9.376   3.569   6.476
38197SOL    HW216599   9.496   3.658   6.503
38198SOL     OW16600   9.791   3.445   6.514
38198SOL    HW116601   9.859   3.510   6.537
38198SOL    HW216602   9.842   3.381   6.461
38199SOL     OW16603  10.297   2.634   6.806
38199SOL    HW116604  10.334   2.600   6.890
38199SOL    HW216605  10.203   2.614   6.819
38200SOL     OW16606   9.332   2.371   6.698
38200SOL    HW116607   9.404   2.364   6.634
38200SOL    HW216608   9.379   2.398   6.778
38201SOL     OW16609   9.512   2.390   7.309
38201SOL    HW116610   9.528   2.317   7.249
38201SOL    HW216611   9.473   2.458   7.252
38202SOL     OW16612  10.705   2.788   7.225
38202SOL    HW116613  10.728   2.880   7.249
38202SOL    HW216614  10.618   2.798   7.184
38203SOL     OW16615  10.109   2.434   5.964
38203SOL    HW116616  10.121   2.366   5.896
38203SOL    HW216617  10.034   2.485   5.930
38204SOL     OW16618   9.564   3.400   7.307
38204SOL    HW116619   9.550   3.469   7.373
38204SOL    HW216620   9.569   3.319   7.361
38205SOL     OW16621   9.954   2.341   6.860
38205SOL    HW116622   9.945   2.257   6.813
38205SOL    HW216623   9.981   2.403   6.789
38206SOL     OW16624  10.245   3.557   7.060
38206SOL    HW116625  10.223   3.521   6.973
38206SOL    HW216626  10.243   3.653   7.044
38207SOL     OW16627   9.753   2.331   5.790
38207SOL    HW116628   9.818   2.403   5.796
38207SOL    HW216629   9.670   2.381   5.786
38208SOL     OW16630   9.419   2.990   7.058
38208SOL    HW116631   9.430   2.933   7.138
38208SOL    HW216632   9.446   2.930   6.985
38209SOL     OW16633  10.611   2.908   6.804
38209SOL    HW116634  10.639   2.856   6.727
38209SOL    HW216635  10.555   2.977   6.763
38210SOL     OW16636  10.625   2.723   5.891
38210SOL    HW116637  10.550   2.683   5.935
38210SOL    HW216638  10.597   2.725   5.798
38211SOL     OW16639  11.030   3.601   6.706
38211SOL    HW116640   0.005   3.632   6.655
38211SOL    HW216641  11.026   3.506   6.681
38212SOL     OW16642  10.555   3.593   6.684
38212SOL    HW116643  10.639   3.608   6.637
38212SOL    HW216644  10.561   3.498   6.707
38213SOL     OW16645   9.409   3.120   6.620
38213SOL    HW116646   9.381   3.139   6.713
38213SOL    HW216647   9.330   3.077   6.585
38214SOL     OW16648  10.011   3.509   7.319
38214SOL    HW116649   9.979   3.573   7.253
38214SOL    HW216650  10.105   3.498   7.295
38215SOL     OW16651  11.041   1.991   6.135
38215SOL    HW116652  11.092   1.995   6.052
38215SOL    HW216653  11.041   1.896   6.157
38216SOL     OW16654  10.682   3.447   6.091
38216SOL    HW116655  10.736   3.464   6.012
38216SOL    HW216656  10.633   3.529   6.104
38217SOL     OW16657   9.470   3.651   7.413
38217SOL    HW116658   9.427   3.580   7.464
38217SOL    HW216659   9.505   3.706   7.485
38218SOL     OW16660  10.561   2.807   6.268
38218SOL    HW116661  10.636   2.747   6.281
38218SOL    HW216662  10.599   2.873   6.207
38219SOL     OW16663  10.098   3.108   7.015
38219SOL    HW116664  10.075   3.158   7.096
38219SOL    HW216665  10.025   3.132   6.956
38220SOL     OW16666   9.990   3.482   5.746
38220SOL    HW116667  10.005   3.490   5.651
38220SOL    HW216668   9.929   3.405   5.749
38221SOL     OW16669   9.557   2.183   6.295
38221SOL    HW116670   9.474   2.230   6.273
38221SOL    HW216671   9.563   2.193   6.391
38222SOL     OW16672  10.509   3.495   5.609
38222SOL    HW116673  10.513   3.400   5.631
38222SOL    HW216674  10.449   3.496   5.533
38223SOL     OW16675  10.137   2.856   6.954
38223SOL    HW116676  10.170   2.873   6.865
38223SOL    HW216677  10.127   2.947   6.990
38224SOL     OW16678  10.220   2.769   5.854
38224SOL    HW116679  10.296   2.807   5.806
38224SOL    HW216680  10.259   2.691   5.897
38225SOL     OW16681  10.822   3.522   5.619
38225SOL    HW116682  10.728   3.500   5.609
38225SOL    HW216683  10.857   3.507   5.529
38226SOL     OW16684   9.650   3.143   7.070
38226SOL    HW116685   9.643   3.208   7.000
38226SOL    HW216686   9.569   3.090   7.061
38227SOL     OW16687  10.875   3.145   6.861
38227SOL    HW116688  10.965   3.154   6.895
38227SOL    HW216689  10.826   3.214   6.911
38228SOL     OW16690  10.356   2.978   6.307
38228SOL    HW116691  10.285   2.922   6.344
38228SOL    HW216692  10.428   2.913   6.296
38229SOL     OW16693  10.335   2.086   6.577
38229SOL    HW116694  10.330   2.044   6.489
38229SOL    HW216695  10.341   2.008   6.635
38230SOL     OW16696   9.933   3.344   6.085
38230SOL    HW116697   9.986   3.301   6.016
38230SOL    HW216698   9.854   3.371   6.037
38231SOL     OW16699   9.566   3.253   5.863
38231SOL    HW116700   9.470   3.240   5.852
38231SOL    HW216701   9.572   3.268   5.959
38232SOL     OW16702   9.434   2.855   7.285
38232SOL    HW116703   9.364   2.852   7.353
38232SOL    HW216704   9.515   2.834   7.336
38233SOL     OW16705   9.992   2.053   7.078
38233SOL    HW116706  10.071   2.019   7.030
38233SOL    HW216707  10.031   2.072   7.166
38234SOL     OW16708   9.402   2.207   5.626
38234SOL    HW116709   9.310   2.198   5.597
38234SOL    HW216710   9.434   2.279   5.569
38235SOL     OW16711  10.757   2.707   6.932
38235SOL    HW116712  10.690   2.767   6.894
38235SOL    HW216713  10.787   2.758   7.009
38236SOL     OW16714   9.354   2.028   5.878
38236SOL    HW116715   9.351   2.117   5.842
38236SOL    HW216716   9.433   1.992   5.833
38237SOL     OW16717  10.517   3.221   5.687
38237SOL    HW116718  10.434   3.172   5.693
38237SOL    HW216719  10.541   3.231   5.781
38238SOL     OW16720   9.926   2.681   7.030
38238SOL    HW116721   9.984   2.758   7.015
38238SOL    HW216722   9.993   2.610   7.032
38239SOL     OW16723  10.796   3.630   6.549
38239SOL    HW116724  10.833   3.683   6.478
38239SOL    HW216725  10.873   3.624   6.609
38240SOL     OW16726  10.034   2.397   7.278
38240SOL    HW116727  10.085   2.457   7.335
38240SOL    HW216728  10.063   2.308   7.308
38241SOL     OW16729  10.774   3.056   7.212
38241SOL    HW116730  10.760   3.063   7.309
38241SOL    HW216731  10.871   3.066   7.208
38242SOL     OW16732   9.680   3.599   7.145
38242SOL    HW116733   9.592   3.637   7.130
38242SOL    HW216734   9.658   3.512   7.183
38243SOL     OW16735  10.512   2.180   6.057
38243SOL    HW116736  10.577   2.109   6.042
38243SOL    HW216737  10.554   2.228   6.131
38244SOL     OW16738   9.887   2.610   6.256
38244SOL    HW116739   9.910   2.704   6.254
38244SOL    HW216740   9.836   2.599   6.174
38245SOL     OW16741  11.043   2.247   7.228
38245SOL    HW116742   0.011   2.204   7.172
38245SOL    HW216743  10.990   2.171   7.259
38246SOL     OW16744  11.021   2.787   7.039
38246SOL    HW116745  11.034   2.876   7.075
38246SOL    HW216746   0.002   2.741   7.066
38247SOL     OW16747  10.168   3.227   5.616
38247SOL    HW116748  10.149   3.244   5.709
38247SOL    HW216749  10.193   3.313   5.580
38248SOL     OW16750   9.952   3.675   6.511
38248SOL    HW116751   9.957   3.770   6.494
38248SOL    HW216752  10.045   3.648   6.507
38249SOL     OW16753  10.193   2.803   6.433
38249SOL    HW116754  10.249   2.733   6.472
38249SOL    HW216755  10.170   2.859   6.508
38250SOL     OW16756  10.412   2.872   5.693
38250SOL    HW116757  10.376   2.910   5.611
38250SOL    HW216758  10.483   2.814   5.659
38251SOL     OW16759   0.062   3.407   6.427
38251SOL    HW116760  11.084   3.390   6.375
38251SOL    HW216761   0.063   3.331   6.486
38252SOL     OW16762   9.563   3.180   7.461
38252SOL    HW116763   9.484   3.128   7.437
38252SOL    HW216764   9.551   3.191   7.557
38253SOL     OW16765   9.395   3.111   6.238
38253SOL    HW116766   9.404   3.051   6.313
38253SOL    HW216767   9.469   3.084   6.181
38254SOL     OW16768   9.991   3.261   7.207
38254SOL    HW116769   9.911   3.215   7.239
38254SOL    HW216770   9.983   3.347   7.252
38255SOL     OW16771   0.007   2.041   6.755
38255SOL    HW116772   0.054   2.007   6.832
38255SOL    HW216773  11.076   1.961   6.712
38256SOL     OW16774   9.757   2.285   6.123
38256SOL    HW116775   9.793   2.211   6.071
38256SOL    HW216776   9.703   2.241   6.190
38257SOL     OW16777  10.990   3.338   6.657
38257SOL    HW116778  10.908   3.312   6.611
38257SOL    HW216779  10.990   3.281   6.734
38258SOL     OW16780   9.639   2.393   6.857
38258SOL    HW116781   9.721   2.347   6.878
38258SOL    HW216782   9.642   2.391   6.759
38259SOL     OW16783  10.134   3.458   6.264
38259SOL    HW116784  10.138   3.491   6.173
38259SOL    HW216785  10.046   3.418   6.267
38260SOL     OW16786  10.728   2.114   6.686
38260SOL    HW116787  10.766   2.036   6.727
38260SOL    HW216788  10.687   2.158   6.763
38261SOL     OW16789  10.329   1.856   6.742
38261SOL    HW116790  10.278   1.777   6.718
38261SOL    HW216791  10.422   1.821   6.738
38262SOL     OW16792  10.099   3.199   5.903
38262SOL    HW116793  10.065   3.108   5.899
38262SOL    HW216794  10.173   3.190   5.964
38263SOL     OW16795   9.912   3.419   6.859
38263SOL    HW116796   9.917   3.506   6.904
38263SOL    HW216797  10.004   3.410   6.830
38264SOL     OW16798  10.660   1.909   5.793
38264SOL    HW116799  10.673   1.861   5.710
38264SOL    HW216800  10.574   1.871   5.822
38265SOL     OW16801  10.625   2.328   6.260
38265SOL    HW116802  10.567   2.406   6.259
38265SOL    HW216803  10.606   2.288   6.347
38266SOL     OW16804  10.900   2.030   6.473
38266SOL    HW116805  10.840   2.056   6.544
38266SOL    HW216806  10.897   2.106   6.414
38267SOL     OW16807   9.359   2.945   5.892
38267SOL    HW116808   9.453   2.932   5.871
38267SOL    HW216809   9.330   2.852   5.904
38268SOL     OW16810  10.190   3.507   5.931
38268SOL    HW116811  10.116   3.492   5.869
38268SOL    HW216812  10.167   3.592   5.974
38269SOL     OW16813   9.533   2.509   7.583
38269SOL    HW116814   9.442   2.494   7.611
38269SOL    HW216815   9.534   2.487   7.489
38270SOL     OW16816   9.524   2.168   8.455
38270SOL    HW116817   9.551   2.138   8.544
38270SOL    HW216818   9.443   2.114   8.441
38271SOL     OW16819   9.309   2.258   8.066
38271SOL    HW116820   9.228   2.278   8.118
38271SOL    HW216821   9.287   2.170   8.031
38272SOL     OW16822   9.884   3.161   8.642
38272SOL    HW116823   9.798   3.174   8.598
38272SOL    HW216824   9.899   3.249   8.680
38273SOL     OW16825  10.882   3.389   8.162
38273SOL    HW116826  10.848   3.356   8.247
38273SOL    HW216827  10.812   3.367   8.100
38274SOL     OW16828  10.450   2.559   8.143
38274SOL    HW116829  10.481   2.650   8.126
38274SOL    HW216830  10.426   2.564   8.237
38275SOL     OW16831  11.086   2.457   7.676
38275SOL    HW116832  11.057   2.450   7.583
38275SOL    HW216833  11.045   2.379   7.715
38276SOL     OW16834  10.043   3.022   8.476
38276SOL    HW116835   9.985   3.067   8.540
38276SOL    HW216836  10.087   3.099   8.435
38277SOL     OW16837  10.183   2.617   9.247
38277SOL    HW116838  10.158   2.678   9.318
38277SOL    HW216839  10.196   2.676   9.170
38278SOL     OW16840  10.005   2.891   8.104
38278SOL    HW116841  10.067   2.861   8.173
38278SOL    HW216842   9.940   2.942   8.155
38279SOL     OW16843  10.025   3.018   9.251
38279SOL    HW116844  10.072   3.100   9.278
38279SOL    HW216845   9.941   3.054   9.218
38280SOL     OW16846   9.638   3.282   8.509
38280SOL    HW116847   9.565   3.253   8.453
38280SOL    HW216848   9.688   3.343   8.450
38281SOL     OW16849  10.763   3.363   8.838
38281SOL    HW116850  10.801   3.451   8.852
38281SOL    HW216851  10.685   3.366   8.896
38282SOL     OW16852   9.748   2.264   8.964
38282SOL    HW116853   9.824   2.204   8.963
38282SOL    HW216854   9.672   2.203   8.959
38283SOL     OW16855   9.549   3.564   7.926
38283SOL    HW116856   9.572   3.644   7.977
38283SOL    HW216857   9.569   3.591   7.836
38284SOL     OW16858  10.442   3.208   9.120
38284SOL    HW116859  10.492   3.206   9.202
38284SOL    HW216860  10.392   3.124   9.125
38285SOL     OW16861   9.576   3.295   7.982
38285SOL    HW116862   9.572   3.392   7.976
38285SOL    HW216863   9.504   3.274   8.043
38286SOL     OW16864   9.901   3.663   8.853
38286SOL    HW116865   9.830   3.634   8.912
38286SOL    HW216866   9.925   3.750   8.889
38287SOL     OW16867   9.887   2.857   7.583
38287SOL    HW116868   9.934   2.904   7.512
38287SOL    HW216869   9.932   2.895   7.662
38288SOL     OW16870  10.922   1.954   8.947
38288SOL    HW116871  10.910   2.027   8.886
38288SOL    HW216872  10.911   1.995   9.033
38289SOL     OW16873   9.420   2.502   7.997
38289SOL    HW116874   9.384   2.413   8.016
38289SOL    HW216875   9.415   2.545   8.085
38290SOL     OW16876   9.379   3.452   7.564
38290SOL    HW116877   9.365   3.359   7.585
38290SOL    HW216878   9.345   3.496   7.644
38291SOL     OW16879  11.002   2.833   8.058
38291SOL    HW116880  11.067   2.776   8.101
38291SOL    HW216881  11.039   2.843   7.969
38292SOL     OW16882   9.440   2.617   9.022
38292SOL    HW116883   9.535   2.628   9.039
38292SOL    HW216884   9.405   2.692   9.074
38293SOL     OW16885   9.902   3.267   8.219
38293SOL    HW116886   9.865   3.177   8.228
38293SOL    HW216887   9.900   3.277   8.123
38294SOL     OW16888  10.604   3.104   8.876
38294SOL    HW116889  10.619   3.029   8.816
38294SOL    HW216890  10.667   3.086   8.949
38295SOL     OW16891  10.160   1.868   7.964
38295SOL    HW116892  10.186   1.961   7.949
38295SOL    HW216893  10.063   1.875   7.971
38296SOL     OW16894   9.492   2.808   8.690
38296SOL    HW116895   9.575   2.763   8.716
38296SOL    HW216896   9.425   2.739   8.696
38297SOL     OW16897  10.837   2.857   7.655
38297SOL    HW116898  10.764   2.808   7.697
38297SOL    HW216899  10.908   2.844   7.719
38298SOL     OW16900  10.501   3.679   9.054
38298SOL    HW116901  10.495   3.744   8.983
38298SOL    HW216902  10.512   3.595   9.006
38299SOL     OW16903   9.648   2.101   9.223
38299SOL    HW116904   9.713   2.168   9.247
38299SOL    HW216905   9.571   2.130   9.276
38300SOL     OW16906  10.757   3.293   8.396
38300SOL    HW116907  10.703   3.308   8.477
38300SOL    HW216908  10.741   3.198   8.380
38301SOL     OW16909  10.993   3.581   8.014
38301SOL    HW116910  10.952   3.528   7.945
38301SOL    HW216911  10.974   3.527   8.093
38302SOL     OW16912   9.894   2.579   7.703
38302SOL    HW116913   9.903   2.667   7.665
38302SOL    HW216914   9.814   2.587   7.757
38303SOL     OW16915  10.574   2.203   8.347
38303SOL    HW116916  10.488   2.163   8.370
38303SOL    HW216917  10.630   2.167   8.419
38304SOL     OW16918  10.865   3.492   7.743
38304SOL    HW116919  10.921   3.570   7.747
38304SOL    HW216920  10.842   3.491   7.647
38305SOL     OW16921  10.097   2.485   8.917
38305SOL    HW116922  10.083   2.445   9.005
38305SOL    HW216923  10.056   2.419   8.858
38306SOL     OW16924  10.702   2.338   9.122
38306SOL    HW116925  10.703   2.393   9.203
38306SOL    HW216926  10.752   2.260   9.150
38307SOL     OW16927  10.257   2.756   9.022
38307SOL    HW116928  10.295   2.672   8.989
38307SOL    HW216929  10.220   2.795   8.940
38308SOL     OW16930  10.317   2.244   8.688
38308SOL    HW116931  10.237   2.270   8.735
38308SOL    HW216932  10.283   2.206   8.607
38309SOL     OW16933  10.353   2.562   7.868
38309SOL    HW116934  10.370   2.570   7.963
38309SOL    HW216935  10.270   2.509   7.868
38310SOL     OW16936   9.415   2.655   8.213
38310SOL    HW116937   9.482   2.658   8.285
38310SOL    HW216938   9.351   2.722   8.240
38311SOL     OW16939   9.417   3.691   9.013
38311SOL    HW116940   9.429   3.674   9.109
38311SOL    HW216941   9.321   3.692   9.004
38312SOL     OW16942  10.197   2.238   7.661
38312SOL    HW116943  10.238   2.295   7.593
38312SOL    HW216944  10.212   2.151   7.624
38313SOL     OW16945  11.028   2.454   9.279
38313SOL    HW116946  10.996   2.530   9.226
38313SOL    HW216947  11.062   2.395   9.209
38314SOL     OW16948  10.673   3.035   8.033
38314SOL    HW116949  10.733   3.026   7.958
38314SOL    HW216950  10.601   3.086   7.994
38315SOL     OW16951   9.845   2.054   8.334
38315SOL    HW116952   9.841   2.083   8.427
38315SOL    HW216953   9.847   2.138   8.286
38316SOL     OW16954  10.333   3.321   7.935
38316SOL    HW116955  10.299   3.390   7.875
38316SOL    HW216956  10.306   3.355   8.021
38317SOL     OW16957   9.652   3.668   8.301
38317SOL    HW116958   9.700   3.585   8.320
38317SOL    HW216959   9.720   3.735   8.321
38318SOL     OW16960  11.088   2.895   8.336
38318SOL    HW116961  11.034   2.927   8.262
38318SOL    HW216962  11.027   2.895   8.412
38319SOL     OW16963  10.524   3.415   8.953
38319SOL    HW116964  10.507   3.347   9.020
38319SOL    HW216965  10.474   3.380   8.878
38320SOL     OW16966   9.611   2.811   7.696
38320SOL    HW116967   9.698   2.823   7.655
38320SOL    HW216968   9.583   2.726   7.660
38321SOL     OW16969  10.776   2.628   8.168
38321SOL    HW116970  10.771   2.582   8.253
38321SOL    HW216971  10.861   2.674   8.173
38322SOL     OW16972   9.771   3.128   9.171
38322SOL    HW116973   9.728   3.134   9.082
38322SOL    HW216974   9.693   3.133   9.228
38323SOL     OW16975  10.431   3.631   7.691
38323SOL    HW116976  10.362   3.581   7.737
38323SOL    HW216977  10.445   3.581   7.608
38324SOL     OW16978   9.482   2.154   8.957
38324SOL    HW116979   9.399   2.188   8.994
38324SOL    HW216980   9.493   2.072   9.008
38325SOL     OW16981   9.782   3.635   7.729
38325SOL    HW116982   9.817   3.653   7.818
38325SOL    HW216983   9.841   3.566   7.696
38326SOL     OW16984  10.715   1.988   7.897
38326SOL    HW116985  10.700   1.957   7.805
38326SOL    HW216986  10.811   1.979   7.906
38327SOL     OW16987   9.554   3.665   8.680
38327SOL    HW116988   9.610   3.603   8.729
38327SOL    HW216989   9.547   3.623   8.593
38328SOL     OW16990  10.284   3.566   8.324
38328SOL    HW116991  10.365   3.513   8.337
38328SOL    HW216992  10.235   3.513   8.258
38329SOL     OW16993   9.677   2.558   7.905
38329SOL    HW116994   9.710   2.469   7.926
38329SOL    HW216995   9.582   2.548   7.927
38330SOL     OW16996  10.837   2.091   9.181
38330SOL    HW116997  10.826   2.108   9.277
38330SOL    HW216998  10.780   2.014   9.170
38331SOL     OW16999   9.942   1.993   7.526
38331SOL    HW117000   9.985   1.918   7.571
38331SOL    HW217001   9.904   1.945   7.451
38332SOL     OW17002  10.072   2.114   9.193
38332SOL    HW117003  10.151   2.057   9.201
38332SOL    HW217004  10.021   2.092   9.272
38333SOL     OW17005  10.199   3.410   8.638
38333SOL    HW117006  10.187   3.377   8.547
38333SOL    HW217007  10.250   3.340   8.680
38334SOL     OW17008  10.627   2.462   8.877
38334SOL    HW117009  10.668   2.421   8.955
38334SOL    HW217010  10.670   2.549   8.871
38335SOL     OW17011  10.131   3.268   8.391
38335SOL    HW117012  10.218   3.260   8.346
38335SOL    HW217013  10.068   3.267   8.317
38336SOL     OW17014  10.234   2.375   8.357
38336SOL    HW117015  10.214   2.370   8.260
38336SOL    HW217016  10.267   2.286   8.374
38337SOL     OW17017   9.878   1.916   7.956
38337SOL    HW117018   9.799   1.921   8.012
38337SOL    HW217019   9.860   1.987   7.892
38338SOL     OW17020  10.753   3.031   7.469
38338SOL    HW117021  10.778   2.963   7.535
38338SOL    HW217022  10.676   3.072   7.511
38339SOL     OW17023   9.605   1.916   7.631
38339SOL    HW117024   9.668   1.986   7.656
38339SOL    HW217025   9.649   1.839   7.672
38340SOL     OW17026  10.241   2.125   7.941
38340SOL    HW117027  10.229   2.168   7.855
38340SOL    HW217028  10.337   2.133   7.954
38341SOL     OW17029  10.364   2.536   8.916
38341SOL    HW117030  10.303   2.461   8.925
38341SOL    HW217031  10.452   2.495   8.917
38342SOL     OW17032  10.544   3.428   8.259
38342SOL    HW117033  10.561   3.495   8.191
38342SOL    HW217034  10.633   3.412   8.295
38343SOL     OW17035   9.781   3.024   8.184
38343SOL    HW117036   9.735   2.953   8.230
38343SOL    HW217037   9.748   3.011   8.092
38344SOL     OW17038  10.550   3.675   8.027
38344SOL    HW117039  10.607   3.732   7.972
38344SOL    HW217040  10.530   3.732   8.102
38345SOL     OW17041  10.335   2.393   7.471
38345SOL    HW117042  10.288   2.474   7.446
38345SOL    HW217043  10.404   2.425   7.531
38346SOL     OW17044   9.364   2.431   8.846
38346SOL    HW117045   9.457   2.406   8.832
38346SOL    HW217046   9.373   2.509   8.905
38347SOL     OW17047   9.860   2.124   8.616
38347SOL    HW117048   9.909   2.043   8.637
38347SOL    HW217049   9.772   2.103   8.654
38348SOL     OW17050  10.189   2.341   8.104
38348SOL    HW117051  10.146   2.386   8.029
38348SOL    HW217052  10.205   2.252   8.068
38349SOL     OW17053  10.293   1.921   8.211
38349SOL    HW117054  10.266   1.892   8.123
38349SOL    HW217055  10.290   1.838   8.263
38350SOL     OW17056  10.743   3.027   8.336
38350SOL    HW117057  10.699   2.944   8.360
38350SOL    HW217058  10.722   3.034   8.242
38351SOL     OW17059  10.783   2.480   8.450
38351SOL    HW117060  10.727   2.402   8.454
38351SOL    HW217061  10.871   2.445   8.470
38352SOL     OW17062  11.099   2.686   7.829
38352SOL    HW117063   0.051   2.642   7.898
38352SOL    HW217064   0.001   2.618   7.760
38353SOL     OW17065   9.808   3.286   7.583
38353SOL    HW117066   9.724   3.279   7.632
38353SOL    HW217067   9.794   3.222   7.513
38354SOL     OW17068  10.696   2.467   7.519
38354SOL    HW117069  10.641   2.428   7.590
38354SOL    HW217070  10.784   2.437   7.544
38355SOL     OW17071   9.813   2.089   7.755
38355SOL    HW117072   9.872   2.059   7.684
38355SOL    HW217073   9.798   2.182   7.729
38356SOL     OW17074  11.033   3.102   9.041
38356SOL    HW117075   0.023   3.070   9.040
38356SOL    HW217076  11.042   3.196   9.061
38357SOL     OW17077  10.372   3.208   8.773
38357SOL    HW117078  10.292   3.180   8.820
38357SOL    HW217079  10.441   3.166   8.828
38358SOL     OW17080  10.921   3.485   9.084
38358SOL    HW117081  10.939   3.540   9.007
38358SOL    HW217082  11.009   3.459   9.111
38359SOL     OW17083  10.421   3.073   8.535
38359SOL    HW117084  10.379   3.123   8.606
38359SOL    HW217085  10.403   3.128   8.456
38360SOL     OW17086  10.923   2.952   8.555
38360SOL    HW117087  10.910   3.017   8.627
38360SOL    HW217088  10.870   2.992   8.485
38361SOL     OW17089  10.219   1.965   8.843
38361SOL    HW117090  10.247   1.936   8.754
38361SOL    HW217091  10.301   2.006   8.877
38362SOL     OW17092  10.306   2.974   9.190
38362SOL    HW117093  10.215   3.002   9.209
38362SOL    HW217094  10.292   2.897   9.130
38363SOL     OW17095  10.039   2.931   7.809
38363SOL    HW117096  10.024   2.907   7.902
38363SOL    HW217097  10.107   2.866   7.782
38364SOL     OW17098   9.727   2.669   8.714
38364SOL    HW117099   9.801   2.670   8.778
38364SOL    HW217100   9.693   2.578   8.723
38365SOL     OW17101  10.596   2.249   8.717
38365SOL    HW117102  10.617   2.331   8.766
38365SOL    HW217103  10.502   2.262   8.694
38366SOL     OW17104   9.383   3.436   8.780
38366SOL    HW117105   9.378   3.531   8.761
38366SOL    HW217106   9.479   3.418   8.780
38367SOL     OW17107   9.680   2.961   7.950
38367SOL    HW117108   9.671   3.030   7.883
38367SOL    HW217109   9.677   2.881   7.895
38368SOL     OW17110   9.851   2.398   8.293
38368SOL    HW117111   9.882   2.462   8.225
38368SOL    HW217112   9.921   2.405   8.360
38369SOL     OW17113  10.560   3.234   7.812
38369SOL    HW117114  10.611   3.301   7.861
38369SOL    HW217115  10.472   3.247   7.852
38370SOL     OW17116  10.610   3.331   8.621
38370SOL    HW117117  10.679   3.334   8.691
38370SOL    HW217118  10.547   3.266   8.656
38371SOL     OW17119  10.883   2.491   7.911
38371SOL    HW117120  10.833   2.542   7.977
38371SOL    HW217121  10.928   2.560   7.860
38372SOL     OW17122   9.648   3.366   8.757
38372SOL    HW117123   9.641   3.330   8.666
38372SOL    HW217124   9.743   3.392   8.758
38373SOL     OW17125   9.746   2.595   9.066
38373SOL    HW117126   9.806   2.640   9.004
38373SOL    HW217127   9.780   2.505   9.064
38374SOL     OW17128  10.925   2.629   9.107
38374SOL    HW117129  10.837   2.668   9.117
38374SOL    HW217130  10.970   2.696   9.052
38375SOL     OW17131  10.290   1.960   9.190
38375SOL    HW117132  10.359   2.026   9.176
38375SOL    HW217133  10.334   1.879   9.159
38376SOL     OW17134   9.808   1.873   9.200
38376SOL    HW117135   9.767   1.815   9.133
38376SOL    HW217136   9.745   1.947   9.202
38377SOL     OW17137   9.855   2.779   8.479
38377SOL    HW117138   9.919   2.851   8.493
38377SOL    HW217139   9.839   2.747   8.569
38378SOL     OW17140  10.694   2.745   8.471
38378SOL    HW117141  10.606   2.709   8.455
38378SOL    HW217142  10.744   2.662   8.481
38379SOL     OW17143  10.516   2.383   7.718
38379SOL    HW117144  10.523   2.304   7.775
38379SOL    HW217145  10.467   2.444   7.776
38380SOL     OW17146   9.607   2.079   8.703
38380SOL    HW117147   9.558   2.098   8.785
38380SOL    HW217148   9.593   1.982   8.695
38381SOL     OW17149   9.357   3.166   8.734
38381SOL    HW117150   9.370   3.116   8.817
38381SOL    HW217151   9.355   3.259   8.763
38382SOL     OW17152  10.046   2.510   8.508
38382SOL    HW117153  10.115   2.464   8.455
38382SOL    HW217154  10.026   2.590   8.457
38383SOL     OW17155   9.617   1.926   8.049
38383SOL    HW117156   9.588   2.016   8.073
38383SOL    HW217157   9.621   1.883   8.137
38384SOL     OW17158  10.922   2.242   7.802
38384SOL    HW117159  10.969   2.188   7.867
38384SOL    HW217160  10.901   2.323   7.852
38385SOL     OW17161  10.371   2.601   8.410
38385SOL    HW117162  10.357   2.616   8.506
38385SOL    HW217163  10.329   2.513   8.398
38386SOL     OW17164  10.292   3.429   9.166
38386SOL    HW117165  10.292   3.479   9.082
38386SOL    HW217166  10.323   3.341   9.138
38387SOL     OW17167   9.658   2.763   9.248
38387SOL    HW117168   9.736   2.794   9.296
38387SOL    HW217169   9.692   2.689   9.194
38388SOL     OW17170  10.795   2.154   7.575
38388SOL    HW117171  10.732   2.090   7.612
38388SOL    HW217172  10.846   2.181   7.654
38389SOL     OW17173  10.610   2.719   7.475
38389SOL    HW117174  10.645   2.629   7.493
38389SOL    HW217175  10.648   2.737   7.388
38390SOL     OW17176  10.372   3.223   8.300
38390SOL    HW117177  10.384   3.149   8.238
38390SOL    HW217178  10.443   3.286   8.275
38391SOL     OW17179   9.586   2.679   8.432
38391SOL    HW117180   9.683   2.692   8.430
38391SOL    HW217181   9.583   2.582   8.447
38392SOL     OW17182   9.636   2.412   8.449
38392SOL    HW117183   9.605   2.320   8.443
38392SOL    HW217184   9.708   2.412   8.382
38393SOL     OW17185  10.446   2.255   9.108
38393SOL    HW117186  10.403   2.286   9.190
38393SOL    HW217187  10.537   2.286   9.117
38394SOL     OW17188  10.461   2.063   8.914
38394SOL    HW117189  10.457   2.133   8.983
38394SOL    HW217190  10.499   2.111   8.839
38395SOL     OW17191   9.316   3.178   7.645
38395SOL    HW117192   9.224   3.195   7.612
38395SOL    HW217193   9.310   3.085   7.675
38396SOL     OW17194   9.407   3.638   8.395
38396SOL    HW117195   9.380   3.564   8.338
38396SOL    HW217196   9.497   3.657   8.362
38397SOL     OW17197   9.797   3.456   8.379
38397SOL    HW117198   9.865   3.527   8.392
38397SOL    HW217199   9.847   3.392   8.325
38398SOL     OW17200  10.296   2.633   8.669
38398SOL    HW117201  10.334   2.605   8.755
38398SOL    HW217202  10.204   2.606   8.680
38399SOL     OW17203   9.334   2.391   8.555
38399SOL    HW117204   9.412   2.366   8.505
38399SOL    HW217205   9.369   2.401   8.644
38400SOL     OW17206   9.533   2.378   9.167
38400SOL    HW117207   9.585   2.335   9.098
38400SOL    HW217208   9.480   2.441   9.117
38401SOL     OW17209  10.693   2.780   9.107
38401SOL    HW117210  10.711   2.875   9.110
38401SOL    HW217211  10.673   2.766   9.013
38402SOL     OW17212  10.110   2.434   7.846
38402SOL    HW117213  10.127   2.367   7.778
38402SOL    HW217214  10.037   2.484   7.805
38403SOL     OW17215   9.557   3.400   9.173
38403SOL    HW117216   9.547   3.469   9.240
38403SOL    HW217217   9.560   3.318   9.227
38404SOL     OW17218  10.012   2.329   8.712
38404SOL    HW117219   9.951   2.260   8.679
38404SOL    HW217220  10.007   2.398   8.643
38405SOL     OW17221  10.248   3.560   8.927
38405SOL    HW117222  10.222   3.526   8.840
38405SOL    HW217223  10.235   3.656   8.916
38406SOL     OW17224   9.750   2.334   7.646
38406SOL    HW117225   9.814   2.406   7.652
38406SOL    HW217226   9.666   2.383   7.645
38407SOL     OW17227   9.430   2.977   8.918
38407SOL    HW117228   9.435   2.928   9.003
38407SOL    HW217229   9.454   2.908   8.853
38408SOL     OW17230  10.603   2.916   8.663
38408SOL    HW117231  10.639   2.865   8.589
38408SOL    HW217232  10.536   2.972   8.620
38409SOL     OW17233  10.629   2.718   7.752
38409SOL    HW117234  10.557   2.673   7.797
38409SOL    HW217235  10.597   2.724   7.661
38410SOL     OW17236  11.037   3.618   8.580
38410SOL    HW117237   0.009   3.636   8.516
38410SOL    HW217238  11.023   3.521   8.568
38411SOL     OW17239  10.563   3.590   8.540
38411SOL    HW117240  10.649   3.603   8.496
38411SOL    HW217241  10.567   3.496   8.565
38412SOL     OW17242   9.415   3.096   8.483
38412SOL    HW117243   9.388   3.130   8.571
38412SOL    HW217244   9.333   3.103   8.433
38413SOL     OW17245  10.005   3.501   9.195
38413SOL    HW117246   9.967   3.587   9.173
38413SOL    HW217247  10.097   3.509   9.165
38414SOL     OW17248  11.047   1.997   7.993
38414SOL    HW117249  11.093   1.996   7.906
38414SOL    HW217250  11.042   1.902   8.016
38415SOL     OW17251  10.684   3.442   7.952
38415SOL    HW117252  10.741   3.462   7.875
38415SOL    HW217253  10.635   3.526   7.967
38416SOL     OW17254   9.467   3.650   9.274
38416SOL    HW117255   9.423   3.581   9.328
38416SOL    HW217256   9.508   3.703   9.345
38417SOL     OW17257  10.566   2.799   8.120
38417SOL    HW117258  10.642   2.740   8.138
38417SOL    HW217259  10.608   2.869   8.066
38418SOL     OW17260  10.117   3.125   8.877
38418SOL    HW117261  10.087   3.165   8.962
38418SOL    HW217262  10.043   3.145   8.819
38419SOL     OW17263   9.986   3.491   7.595
38419SOL    HW117264  10.000   3.486   7.499
38419SOL    HW217265   9.937   3.407   7.609
38420SOL     OW17266   9.556   2.176   8.148
38420SOL    HW117267   9.468   2.211   8.125
38420SOL    HW217268   9.563   2.192   8.243
38421SOL     OW17269  10.511   3.495   7.475
38421SOL    HW117270  10.516   3.400   7.498
38421SOL    HW217271  10.459   3.495   7.394
38422SOL     OW17272  10.145   2.872   8.808
38422SOL    HW117273  10.190   2.877   8.724
38422SOL    HW217274  10.144   2.965   8.838
38423SOL     OW17275  10.222   2.762   7.718
38423SOL    HW117276  10.295   2.801   7.664
38423SOL    HW217277  10.269   2.694   7.770
38424SOL     OW17278  10.817   3.529   7.484
38424SOL    HW117279  10.724   3.505   7.469
38424SOL    HW217280  10.858   3.506   7.398
38425SOL     OW17281   9.650   3.140   8.933
38425SOL    HW117282   9.640   3.214   8.870
38425SOL    HW217283   9.569   3.088   8.920
38426SOL     OW17284  10.879   3.151   8.736
38426SOL    HW117285  10.952   3.143   8.799
38426SOL    HW217286  10.827   3.223   8.776
38427SOL     OW17287  10.364   2.973   8.183
38427SOL    HW117288  10.294   2.917   8.221
38427SOL    HW217289  10.432   2.907   8.161
38428SOL     OW17290  10.341   2.080   8.428
38428SOL    HW117291  10.318   2.035   8.345
38428SOL    HW217292  10.346   2.006   8.491
38429SOL     OW17293   9.936   3.350   7.950
38429SOL    HW117294   9.984   3.305   7.878
38429SOL    HW217295   9.851   3.371   7.911
38430SOL     OW17296   9.563   3.245   7.721
38430SOL    HW117297   9.468   3.223   7.712
38430SOL    HW217298   9.569   3.265   7.817
38431SOL     OW17299   9.435   2.865   9.155
38431SOL    HW117300   9.365   2.857   9.224
38431SOL    HW217301   9.515   2.835   9.203
38432SOL     OW17302   9.975   2.041   8.944
38432SOL    HW117303  10.062   2.010   8.911
38432SOL    HW217304  10.001   2.076   9.032
38433SOL     OW17305   9.401   2.196   7.471
38433SOL    HW117306   9.305   2.192   7.461
38433SOL    HW217307   9.422   2.282   7.433
38434SOL     OW17308  10.714   2.726   8.836
38434SOL    HW117309  10.665   2.785   8.776
38434SOL    HW217310  10.806   2.751   8.816
38435SOL     OW17311   9.358   2.033   7.746
38435SOL    HW117312   9.354   2.120   7.705
38435SOL    HW217313   9.445   2.001   7.716
38436SOL     OW17314  10.515   3.232   7.546
38436SOL    HW117315  10.437   3.175   7.550
38436SOL    HW217316  10.543   3.233   7.640
38437SOL     OW17317   9.930   2.684   8.883
38437SOL    HW117318   9.988   2.761   8.875
38437SOL    HW217319   9.996   2.613   8.893
38438SOL     OW17320  10.804   3.628   8.414
38438SOL    HW117321  10.842   3.664   8.333
38438SOL    HW217322  10.882   3.627   8.472
38439SOL     OW17323  10.038   2.394   9.154
38439SOL    HW117324  10.074   2.462   9.214
38439SOL    HW217325  10.055   2.311   9.200
38440SOL     OW17326  10.775   3.046   9.074
38440SOL    HW117327  10.761   3.055   9.171
38440SOL    HW217328  10.871   3.063   9.068
38441SOL     OW17329   9.679   3.593   9.008
38441SOL    HW117330   9.594   3.640   8.999
38441SOL    HW217331   9.651   3.510   9.050
38442SOL     OW17332  11.006   2.730   8.678
38442SOL    HW117333  11.001   2.657   8.615
38442SOL    HW217334  10.969   2.806   8.628
38443SOL     OW17335  10.524   2.181   7.923
38443SOL    HW117336  10.591   2.112   7.909
38443SOL    HW217337  10.565   2.234   7.995
38444SOL     OW17338   9.901   2.611   8.115
38444SOL    HW117339   9.940   2.697   8.095
38444SOL    HW217340   9.832   2.603   8.048
38445SOL     OW17341  11.061   2.244   9.086
38445SOL    HW117342  11.024   2.295   9.013
38445SOL    HW217343  10.985   2.190   9.118
38446SOL     OW17344  11.040   2.803   8.935
38446SOL    HW117345  11.041   2.900   8.931
38446SOL    HW217346  11.035   2.774   8.842
38447SOL     OW17347  10.169   3.226   7.480
38447SOL    HW117348  10.149   3.243   7.574
38447SOL    HW217349  10.197   3.312   7.445
38448SOL     OW17350   9.957   3.668   8.361
38448SOL    HW117351   9.948   3.763   8.344
38448SOL    HW217352  10.050   3.658   8.384
38449SOL     OW17353  10.187   2.803   8.299
38449SOL    HW117354  10.245   2.732   8.331
38449SOL    HW217355  10.174   2.860   8.377
38450SOL     OW17356  10.409   2.876   7.554
38450SOL    HW117357  10.374   2.912   7.471
38450SOL    HW217358  10.486   2.825   7.523
38451SOL     OW17359   0.050   3.404   8.297
38451SOL    HW117360  11.070   3.385   8.248
38451SOL    HW217361   0.070   3.318   8.337
38452SOL     OW17362   9.546   3.178   9.316
38452SOL    HW117363   9.468   3.122   9.302
38452SOL    HW217364   9.544   3.189   9.413
38453SOL     OW17365   9.398   3.113   8.116
38453SOL    HW117366   9.352   3.036   8.151
38453SOL    HW217367   9.472   3.074   8.067
38454SOL     OW17368   9.981   3.260   9.068
38454SOL    HW117369   9.905   3.209   9.099
38454SOL    HW217370   9.973   3.343   9.120
38455SOL     OW17371   0.014   2.038   8.624
38455SOL    HW117372   0.013   1.959   8.680
38455SOL    HW217373  11.078   2.004   8.543
38456SOL     OW17374   9.754   2.293   7.977
38456SOL    HW117375   9.772   2.215   7.923
38456SOL    HW217376   9.703   2.258   8.052
38457SOL     OW17377  10.981   3.361   8.554
38457SOL    HW117378  10.907   3.325   8.504
38457SOL    HW217379  11.009   3.287   8.609
38458SOL     OW17380   9.642   2.401   8.743
38458SOL    HW117381   9.700   2.354   8.805
38458SOL    HW217382   9.666   2.362   8.658
38459SOL     OW17383  10.138   3.453   8.124
38459SOL    HW117384  10.128   3.488   8.035
38459SOL    HW217385  10.051   3.412   8.138
38460SOL     OW17386  10.731   2.099   8.541
38460SOL    HW117387  10.763   2.022   8.589
38460SOL    HW217388  10.691   2.152   8.613
38461SOL     OW17389  10.328   1.856   8.600
38461SOL    HW117390  10.276   1.779   8.572
38461SOL    HW217391  10.419   1.820   8.596
38462SOL     OW17392  10.099   3.209   7.763
38462SOL    HW117393  10.065   3.118   7.762
38462SOL    HW217394  10.177   3.200   7.819
38463SOL     OW17395   9.910   3.426   8.718
38463SOL    HW117396   9.908   3.513   8.764
38463SOL    HW217397  10.004   3.422   8.694
38464SOL     OW17398  10.655   1.912   7.655
38464SOL    HW117399  10.680   1.860   7.577
38464SOL    HW217400  10.569   1.868   7.677
38465SOL     OW17401  10.628   2.341   8.123
38465SOL    HW117402  10.560   2.410   8.121
38465SOL    HW217403  10.617   2.299   8.210
38466SOL     OW17404  10.921   2.035   8.333
38466SOL    HW117405  10.845   2.047   8.392
38466SOL    HW217406  10.909   2.106   8.270
38467SOL     OW17407   9.355   2.925   7.757
38467SOL    HW117408   9.448   2.912   7.729
38467SOL    HW217409   9.331   2.834   7.781
38468SOL     OW17410  10.198   3.517   7.794
38468SOL    HW117411  10.121   3.497   7.739
38468SOL    HW217412  10.171   3.597   7.844
38469SOL     OW17413   9.537   2.501   9.459
38469SOL    HW117414   9.442   2.491   9.478
38469SOL    HW217415   9.544   2.479   9.365
38470SOL     OW17416   9.517   2.160  10.284
38470SOL    HW117417   9.544   2.132  10.373
38470SOL    HW217418   9.436   2.106  10.272
38471SOL     OW17419   9.317   2.261   9.938
38471SOL    HW117420   9.236   2.277   9.989
38471SOL    HW217421   9.295   2.180   9.891
38472SOL     OW17422   9.877   3.166  10.449
38472SOL    HW117423   9.783   3.143  10.439
38472SOL    HW217424   9.873   3.242  10.509
38473SOL     OW17425  10.890   3.375  10.011
38473SOL    HW117426  10.854   3.342  10.095
38473SOL    HW217427  10.818   3.357   9.948
38474SOL     OW17428  10.456   2.554  10.005
38474SOL    HW117429  10.488   2.645   9.993
38474SOL    HW217430  10.413   2.562  10.091
38475SOL     OW17431  11.087   2.449   9.537
38475SOL    HW117432  11.059   2.450   9.443
38475SOL    HW217433  11.039   2.372   9.573
38476SOL     OW17434  10.063   3.012  10.336
38476SOL    HW117435   9.991   3.063  10.378
38476SOL    HW217436  10.100   3.080  10.278
38477SOL     OW17437  10.169   2.619   0.031
38477SOL    HW117438  10.170   2.688   0.099
38477SOL    HW217439  10.191   2.669  11.051
38478SOL     OW17440  10.005   2.900   9.964
38478SOL    HW117441  10.060   2.876  10.041
38478SOL    HW217442   9.929   2.945  10.006
38479SOL     OW17443   9.619   3.306  10.387
38479SOL    HW117444   9.547   3.264  10.338
38479SOL    HW217445   9.672   3.348  10.317
38480SOL     OW17446  10.767   3.356  10.691
38480SOL    HW117447  10.785   3.451  10.693
38480SOL    HW217448  10.685   3.351  10.744
38481SOL     OW17449   9.756   2.242  10.800
38481SOL    HW117450   9.834   2.184  10.795
38481SOL    HW217451   9.682   2.181  10.809
38482SOL     OW17452   9.532   3.576   9.785
38482SOL    HW117453   9.559   3.653   9.839
38482SOL    HW217454   9.594   3.582   9.711
38483SOL     OW17455   9.559   3.288   9.844
38483SOL    HW117456   9.555   3.385   9.852
38483SOL    HW217457   9.485   3.260   9.902
38484SOL     OW17458   9.577   2.944  10.191
38484SOL    HW117459   9.583   2.868  10.250
38484SOL    HW217460   9.527   3.008  10.245
38485SOL     OW17461   9.924   3.657  10.743
38485SOL    HW117462   9.842   3.639  10.794
38485SOL    HW217463   9.936   3.753  10.757
38486SOL     OW17464   9.876   2.860   9.429
38486SOL    HW117465   9.931   2.905   9.363
38486SOL    HW217466   9.918   2.892   9.511
38487SOL     OW17467  10.903   1.987  10.809
38487SOL    HW117468  10.952   2.014  10.730
38487SOL    HW217469  10.955   2.026  10.879
38488SOL     OW17470   9.429   2.513   9.875
38488SOL    HW117471   9.397   2.422   9.890
38488SOL    HW217472   9.420   2.553   9.963
38489SOL     OW17473   9.374   3.461   9.435
38489SOL    HW117474   9.357   3.367   9.452
38489SOL    HW217475   9.340   3.503   9.516
38490SOL     OW17476  10.993   2.834   9.908
38490SOL    HW117477  11.061   2.769   9.930
38490SOL    HW217478  11.021   2.863   9.819
38491SOL     OW17479   9.434   2.602  10.905
38491SOL    HW117480   9.522   2.629  10.935
38491SOL    HW217481   9.389   2.687  10.899
38492SOL     OW17482   9.901   3.276  10.074
38492SOL    HW117483   9.866   3.184  10.082
38492SOL    HW217484   9.896   3.287   9.978
38493SOL     OW17485  10.598   3.109  10.732
38493SOL    HW117486  10.619   3.044  10.662
38493SOL    HW217487  10.662   3.084  10.800
38494SOL     OW17488  10.154   1.876   9.841
38494SOL    HW117489  10.177   1.966   9.811
38494SOL    HW217490  10.058   1.874   9.829
38495SOL     OW17491   9.487   2.800  10.614
38495SOL    HW117492   9.576   2.762  10.598
38495SOL    HW217493   9.431   2.751  10.553
38496SOL     OW17494  10.844   2.859   9.509
38496SOL    HW117495  10.774   2.808   9.554
38496SOL    HW217496  10.918   2.853   9.571
38497SOL     OW17497  10.500   3.657  10.899
38497SOL    HW117498  10.525   3.730  10.841
38497SOL    HW217499  10.520   3.579  10.844
38498SOL     OW17500   9.634   2.098   0.016
38498SOL    HW117501   9.696   2.172   0.020
38498SOL    HW217502   9.549   2.144   0.028
38499SOL     OW17503  10.762   3.290  10.253
38499SOL    HW117504  10.699   3.303  10.326
38499SOL    HW217505  10.747   3.196  10.230
38500SOL     OW17506  10.996   3.588   9.894
38500SOL    HW117507  10.967   3.553   9.809
38500SOL    HW217508  10.972   3.516   9.955
38501SOL     OW17509   9.902   2.577   9.574
38501SOL    HW117510   9.903   2.665   9.534
38501SOL    HW217511   9.835   2.587   9.644
38502SOL     OW17512  10.575   2.217  10.226
38502SOL    HW117513  10.486   2.177  10.232
38502SOL    HW217514  10.623   2.161  10.290
38503SOL     OW17515  10.852   3.496   9.598
38503SOL    HW117516  10.949   3.487   9.590
38503SOL    HW217517  10.829   3.490   9.504
38504SOL     OW17518  10.121   2.475  10.776
38504SOL    HW117519  10.092   2.442  10.863
38504SOL    HW217520  10.071   2.418  10.714
38505SOL     OW17521  10.252   2.729  10.897
38505SOL    HW117522  10.302   2.659  10.850
38505SOL    HW217523  10.209   2.776  10.824
38506SOL     OW17524  10.329   2.262  10.569
38506SOL    HW117525  10.242   2.277  10.607
38506SOL    HW217526  10.309   2.222  10.483
38507SOL     OW17527  10.343   2.558   9.726
38507SOL    HW117528  10.360   2.566   9.822
38507SOL    HW217529  10.260   2.505   9.725
38508SOL     OW17530   9.409   2.670  10.109
38508SOL    HW117531   9.485   2.678  10.169
38508SOL    HW217532   9.362   2.754  10.125
38509SOL     OW17533   9.430   3.703  10.869
38509SOL    HW117534   9.420   3.652  10.950
38509SOL    HW217535   9.341   3.707  10.835
38510SOL     OW17536  10.206   2.227   9.523
38510SOL    HW117537  10.236   2.284   9.450
38510SOL    HW217538  10.249   2.143   9.500
38511SOL     OW17539  10.675   3.029   9.880
38511SOL    HW117540  10.733   3.005   9.807
38511SOL    HW217541  10.613   3.090   9.835
38512SOL     OW17542   9.859   2.057  10.199
38512SOL    HW117543   9.871   2.074  10.295
38512SOL    HW217544   9.853   2.147  10.163
38513SOL     OW17545  10.333   3.317   9.798
38513SOL    HW117546  10.295   3.382   9.737
38513SOL    HW217547  10.311   3.357   9.883
38514SOL     OW17548   9.659   3.674  10.168
38514SOL    HW117549   9.705   3.589  10.188
38514SOL    HW217550   9.729   3.739  10.182
38515SOL     OW17551  11.091   2.910  10.176
38515SOL    HW117552  11.028   2.921  10.103
38515SOL    HW217553  11.033   2.911  10.255
38516SOL     OW17554  10.525   3.422  10.787
38516SOL    HW117555  10.525   3.372  10.869
38516SOL    HW217556  10.459   3.373  10.735
38517SOL     OW17557   9.612   2.810   9.555
38517SOL    HW117558   9.699   2.832   9.519
38517SOL    HW217559   9.593   2.725   9.514
38518SOL     OW17560  10.772   2.627  10.039
38518SOL    HW117561  10.762   2.561  10.109
38518SOL    HW217562  10.864   2.653  10.044
38519SOL     OW17563   9.784   3.142  11.038
38519SOL    HW117564   9.750   3.149  10.946
38519SOL    HW217565   9.734   3.067  11.071
38520SOL     OW17566  10.428   3.638   9.558
38520SOL    HW117567  10.362   3.580   9.598
38520SOL    HW217568  10.452   3.591   9.476
38521SOL     OW17569   9.472   2.139  10.773
38521SOL    HW117570   9.424   2.215  10.806
38521SOL    HW217571   9.453   2.071  10.840
38522SOL     OW17572   9.768   3.602   9.623
38522SOL    HW117573   9.816   3.651   9.693
38522SOL    HW217574   9.841   3.564   9.571
38523SOL     OW17575  10.728   1.986   9.752
38523SOL    HW117576  10.715   1.944   9.664
38523SOL    HW217577  10.820   1.967   9.772
38524SOL     OW17578   9.562   3.654  10.537
38524SOL    HW117579   9.619   3.582  10.570
38524SOL    HW217580   9.533   3.620  10.452
38525SOL     OW17581  10.290   3.564  10.179
38525SOL    HW117582  10.374   3.517  10.167
38525SOL    HW217583  10.232   3.515  10.118
38526SOL     OW17584   9.700   2.549   9.771
38526SOL    HW117585   9.728   2.457   9.792
38526SOL    HW217586   9.604   2.544   9.791
38527SOL     OW17587   9.935   1.998   9.404
38527SOL    HW117588  10.010   1.945   9.433
38527SOL    HW217589   9.892   1.939   9.339
38528SOL     OW17590  10.077   2.113  11.026
38528SOL    HW117591  10.146   2.080  11.086
38528SOL    HW217592  10.014   2.152  11.088
38529SOL     OW17593  10.219   3.398  10.490
38529SOL    HW117594  10.185   3.362  10.406
38529SOL    HW217595  10.253   3.318  10.534
38530SOL     OW17596  10.654   2.456  10.746
38530SOL    HW117597  10.717   2.431  10.814
38530SOL    HW217598  10.683   2.548  10.724
38531SOL     OW17599  10.136   3.275  10.263
38531SOL    HW117600  10.223   3.262  10.219
38531SOL    HW217601  10.075   3.278  10.189
38532SOL     OW17602  10.249   2.379  10.217
38532SOL    HW117603  10.226   2.374  10.121
38532SOL    HW217604  10.263   2.286  10.236
38533SOL     OW17605   9.863   1.911   9.811
38533SOL    HW117606   9.786   1.923   9.870
38533SOL    HW217607   9.852   1.988   9.751
38534SOL     OW17608  10.754   3.042   9.334
38534SOL    HW117609  10.780   2.971   9.397
38534SOL    HW217610  10.678   3.080   9.378
38535SOL     OW17611   9.594   1.903   9.497
38535SOL    HW117612   9.656   1.976   9.488
38535SOL    HW217613   9.653   1.834   9.535
38536SOL     OW17614  10.243   2.130   9.801
38536SOL    HW117615  10.223   2.172   9.716
38536SOL    HW217616  10.340   2.129   9.799
38537SOL     OW17617  10.403   2.544  10.780
38537SOL    HW117618  10.342   2.468  10.783
38537SOL    HW217619  10.491   2.503  10.775
38538SOL     OW17620  10.535   3.465  10.100
38538SOL    HW117621  10.548   3.525  10.025
38538SOL    HW217622  10.622   3.466  10.142
38539SOL     OW17623   9.786   3.030  10.050
38539SOL    HW117624   9.712   2.995  10.105
38539SOL    HW217625   9.749   3.011   9.961
38540SOL     OW17626  10.564   3.681   9.901
38540SOL    HW117627  10.621   3.730   9.839
38540SOL    HW217628  10.545   3.748   9.968
38541SOL     OW17629  10.330   2.385   9.330
38541SOL    HW117630  10.292   2.468   9.298
38541SOL    HW217631  10.406   2.414   9.383
38542SOL     OW17632   9.394   2.422  10.715
38542SOL    HW117633   9.488   2.416  10.690
38542SOL    HW217634   9.394   2.496  10.779
38543SOL     OW17635   9.869   2.084  10.469
38543SOL    HW117636   9.911   2.016  10.522
38543SOL    HW217637   9.776   2.077  10.497
38544SOL     OW17638  10.189   2.334   9.969
38544SOL    HW117639  10.140   2.380   9.899
38544SOL    HW217640  10.207   2.248   9.927
38545SOL     OW17641  10.364   1.934  10.052
38545SOL    HW117642  10.308   1.922   9.972
38545SOL    HW217643  10.333   1.860  10.106
38546SOL     OW17644  10.734   3.024  10.173
38546SOL    HW117645  10.686   2.941  10.181
38546SOL    HW217646  10.726   3.040  10.077
38547SOL     OW17647  10.774   2.450  10.297
38547SOL    HW117648  10.717   2.372  10.294
38547SOL    HW217649  10.859   2.413  10.327
38548SOL     OW17650  11.094   2.660   9.698
38548SOL    HW117651   0.052   2.615   9.763
38548SOL    HW217652  11.099   2.595   9.624
38549SOL     OW17653   9.802   3.290   9.434
38549SOL    HW117654   9.725   3.269   9.490
38549SOL    HW217655   9.786   3.236   9.356
38550SOL     OW17656  10.709   2.453   9.391
38550SOL    HW117657  10.650   2.422   9.462
38550SOL    HW217658  10.797   2.430   9.426
38551SOL     OW17659   9.815   2.097   9.625
38551SOL    HW117660   9.865   2.064   9.548
38551SOL    HW217661   9.798   2.189   9.597
38552SOL     OW17662  11.041   3.097  10.872
38552SOL    HW117663   0.027   3.061  10.892
38552SOL    HW217664  11.026   3.157  10.945
38553SOL     OW17665  10.344   3.241  10.702
38553SOL    HW117666  10.267   3.183  10.719
38553SOL    HW217667  10.419   3.178  10.710
38554SOL     OW17668  10.418   3.102  10.424
38554SOL    HW117669  10.329   3.082  10.454
38554SOL    HW217670  10.403   3.128  10.330
38555SOL     OW17671  10.935   2.950  10.405
38555SOL    HW117672  10.927   3.010  10.481
38555SOL    HW217673  10.856   2.974  10.356
38556SOL     OW17674  10.233   1.980  10.678
38556SOL    HW117675  10.270   1.939  10.597
38556SOL    HW217676  10.313   2.006  10.728
38557SOL     OW17677  10.019   2.921   9.661
38557SOL    HW117678  10.020   2.907   9.757
38557SOL    HW217679  10.094   2.864   9.631
38558SOL     OW17680   9.737   2.676  10.591
38558SOL    HW117681   9.809   2.678  10.656
38558SOL    HW217682   9.707   2.583  10.596
38559SOL     OW17683  10.601   2.232  10.604
38559SOL    HW117684  10.629   2.315  10.646
38559SOL    HW217685  10.508   2.252  10.582
38560SOL     OW17686   9.381   3.425  10.644
38560SOL    HW117687   9.353   3.510  10.607
38560SOL    HW217688   9.477   3.434  10.652
38561SOL     OW17689   9.682   2.964   9.811
38561SOL    HW117690   9.698   3.027   9.740
38561SOL    HW217691   9.653   2.885   9.762
38562SOL     OW17692   9.853   2.391  10.150
38562SOL    HW117693   9.882   2.453  10.080
38562SOL    HW217694   9.915   2.410  10.222
38563SOL     OW17695  10.559   3.222   9.698
38563SOL    HW117696  10.612   3.297   9.730
38563SOL    HW217697  10.471   3.245   9.734
38564SOL     OW17698  10.590   3.318  10.466
38564SOL    HW117699  10.644   3.309  10.546
38564SOL    HW217700  10.527   3.243  10.473
38565SOL     OW17701  10.893   2.489   9.791
38565SOL    HW117702  10.830   2.544   9.840
38565SOL    HW217703  10.957   2.555   9.758
38566SOL     OW17704   9.661   3.380  10.637
38566SOL    HW117705   9.643   3.346  10.546
38566SOL    HW217706   9.758   3.383  10.640
38567SOL     OW17707   9.761   2.569  10.938
38567SOL    HW117708   9.819   2.620  10.878
38567SOL    HW217709   9.783   2.478  10.915
38568SOL     OW17710  10.938   2.607  11.008
38568SOL    HW117711  10.850   2.645  11.005
38568SOL    HW217712  10.987   2.664  10.947
38569SOL     OW17713   9.871   2.747  10.364
38569SOL    HW117714   9.916   2.832  10.370
38569SOL    HW217715   9.831   2.736  10.453
38570SOL     OW17716  10.662   2.713  10.355
38570SOL    HW117717  10.585   2.679  10.307
38570SOL    HW217718  10.722   2.638  10.351
38571SOL     OW17719  10.522   2.389   9.584
38571SOL    HW117720  10.524   2.312   9.646
38571SOL    HW217721  10.458   2.447   9.627
38572SOL     OW17722   9.590   2.068  10.536
38572SOL    HW117723   9.549   2.098  10.621
38572SOL    HW217724   9.578   1.971  10.543
38573SOL     OW17725   9.368   3.146  10.591
38573SOL    HW117726   9.397   3.097  10.671
38573SOL    HW217727   9.357   3.236  10.625
38574SOL     OW17728  10.019   2.504  10.345
38574SOL    HW117729  10.097   2.500  10.288
38574SOL    HW217730   9.978   2.590  10.324
38575SOL     OW17731   9.616   1.932   9.923
38575SOL    HW117732   9.593   2.023   9.948
38575SOL    HW217733   9.625   1.888  10.011
38576SOL     OW17734  10.927   2.250   9.659
38576SOL    HW117735  10.948   2.181   9.723
38576SOL    HW217736  10.912   2.328   9.716
38577SOL     OW17737  10.353   2.618  10.262
38577SOL    HW117738  10.346   2.630  10.358
38577SOL    HW217739  10.322   2.525  10.251
38578SOL     OW17740  10.306   3.425  10.975
38578SOL    HW117741  10.310   3.482  10.897
38578SOL    HW217742  10.267   3.343  10.939
38579SOL     OW17743   9.685   2.783  11.065
38579SOL    HW117744   9.753   2.797   0.031
38579SOL    HW217745   9.711   2.696  11.029
38580SOL     OW17746  10.801   2.140   9.439
38580SOL    HW117747  10.742   2.070   9.472
38580SOL    HW217748  10.844   2.172   9.521
38581SOL     OW17749  10.594   2.696   9.341
38581SOL    HW117750  10.647   2.616   9.354
38581SOL    HW217751  10.624   2.724   9.252
38582SOL     OW17752  10.380   3.222  10.164
38582SOL    HW117753  10.379   3.137  10.114
38582SOL    HW217754  10.446   3.274  10.116
38583SOL     OW17755   9.604   2.680  10.311
38583SOL    HW117756   9.700   2.696  10.317
38583SOL    HW217757   9.600   2.584  10.323
38584SOL     OW17758   9.641   2.397  10.311
38584SOL    HW117759   9.599   2.311  10.291
38584SOL    HW217760   9.710   2.401  10.242
38585SOL     OW17761  10.471   2.070  10.791
38585SOL    HW117762  10.494   2.136  10.857
38585SOL    HW217763  10.513   2.106  10.712
38586SOL     OW17764   9.314   3.187   9.504
38586SOL    HW117765   9.220   3.202   9.477
38586SOL    HW217766   9.312   3.096   9.539
38587SOL     OW17767   9.409   3.653  10.250
38587SOL    HW117768   9.385   3.578  10.193
38587SOL    HW217769   9.501   3.672  10.219
38588SOL     OW17770   9.799   3.457  10.245
38588SOL    HW117771   9.873   3.504  10.286
38588SOL    HW217772   9.845   3.391  10.189
38589SOL     OW17773  10.296   2.656  10.541
38589SOL    HW117774  10.361   2.623  10.605
38589SOL    HW217775  10.217   2.608  10.568
38590SOL     OW17776   9.340   2.367  10.450
38590SOL    HW117777   9.419   2.374  10.393
38590SOL    HW217778   9.376   2.383  10.539
38591SOL     OW17779  10.111   2.421   9.700
38591SOL    HW117780  10.129   2.353   9.632
38591SOL    HW217781  10.038   2.470   9.660
38592SOL     OW17782   9.553   3.403  11.031
38592SOL    HW117783   9.501   3.440   0.005
38592SOL    HW217784   9.599   3.330  11.073
38593SOL     OW17785   9.999   2.342  10.577
38593SOL    HW117786   9.953   2.263  10.544
38593SOL    HW217787   9.994   2.403  10.501
38594SOL     OW17788  10.258   3.558  10.731
38594SOL    HW117789  10.186   3.493  10.727
38594SOL    HW217790  10.214   3.638  10.765
38595SOL     OW17791   9.758   2.342   9.506
38595SOL    HW117792   9.824   2.413   9.512
38595SOL    HW217793   9.676   2.394   9.503
38596SOL     OW17794   9.478   3.003  10.787
38596SOL    HW117795   9.461   2.951  10.868
38596SOL    HW217796   9.489   2.931  10.720
38597SOL     OW17797  10.617   2.920  10.538
38597SOL    HW117798  10.634   2.849  10.472
38597SOL    HW217799  10.552   2.976  10.493
38598SOL     OW17800  10.629   2.726   9.610
38598SOL    HW117801  10.564   2.676   9.661
38598SOL    HW217802  10.594   2.723   9.520
38599SOL     OW17803  11.029   3.635  10.464
38599SOL    HW117804   0.002   3.650  10.401
38599SOL    HW217805  11.013   3.538  10.452
38600SOL     OW17806  10.561   3.580  10.432
38600SOL    HW117807  10.645   3.613  10.395
38600SOL    HW217808  10.576   3.484  10.429
38601SOL     OW17809   9.422   3.108  10.338
38601SOL    HW117810   9.407   3.120  10.435
38601SOL    HW217811   9.334   3.084  10.308
38602SOL     OW17812  11.043   1.996   9.857
38602SOL    HW117813  11.093   1.995   9.773
38602SOL    HW217814  11.038   1.901   9.881
38603SOL     OW17815  10.683   3.446   9.799
38603SOL    HW117816  10.739   3.467   9.721
38603SOL    HW217817  10.635   3.529   9.814
38604SOL     OW17818  10.568   2.804  10.000
38604SOL    HW117819  10.644   2.744  10.012
38604SOL    HW217820  10.606   2.869   9.938
38605SOL     OW17821  10.103   3.113  10.749
38605SOL    HW117822  10.083   3.153  10.836
38605SOL    HW217823  10.021   3.130  10.701
38606SOL     OW17824   9.983   3.481   9.475
38606SOL    HW117825   9.997   3.492   9.379
38606SOL    HW217826   9.923   3.402   9.473
38607SOL     OW17827   9.563   2.176  10.009
38607SOL    HW117828   9.477   2.221   9.991
38607SOL    HW217829   9.568   2.179  10.106
38608SOL     OW17830  10.510   3.505   9.342
38608SOL    HW117831  10.516   3.410   9.360
38608SOL    HW217832  10.442   3.508   9.272
38609SOL     OW17833  10.138   2.847  10.686
38609SOL    HW117834  10.198   2.832  10.611
38609SOL    HW217835  10.149   2.941  10.708
38610SOL     OW17836  10.221   2.772   9.577
38610SOL    HW117837  10.298   2.812   9.531
38610SOL    HW217838  10.260   2.694   9.619
38611SOL     OW17839  10.808   3.469   9.332
38611SOL    HW117840  10.714   3.486   9.325
38611SOL    HW217841  10.840   3.477   9.240
38612SOL     OW17842   9.692   3.154  10.792
38612SOL    HW117843   9.660   3.227  10.737
38612SOL    HW217844   9.614   3.095  10.792
38613SOL     OW17845  10.893   3.142  10.591
38613SOL    HW117846  10.959   3.134  10.661
38613SOL    HW217847  10.842   3.221  10.620
38614SOL     OW17848  10.378   2.983  10.064
38614SOL    HW117849  10.298   2.929  10.083
38614SOL    HW217850  10.443   2.915  10.040
38615SOL     OW17851  10.333   2.094  10.289
38615SOL    HW117852  10.324   2.052  10.202
38615SOL    HW217853  10.334   2.015  10.348
38616SOL     OW17854   9.934   3.351   9.803
38616SOL    HW117855   9.985   3.318   9.728
38616SOL    HW217856   9.850   3.375   9.762
38617SOL     OW17857   9.566   3.242   9.584
38617SOL    HW117858   9.469   3.231   9.572
38617SOL    HW217859   9.570   3.259   9.680
38618SOL     OW17860   9.438   2.872  11.010
38618SOL    HW117861   9.370   2.856  11.076
38618SOL    HW217862   9.520   2.840  11.052
38619SOL     OW17863   9.975   2.061  10.777
38619SOL    HW117864  10.060   2.049  10.732
38619SOL    HW217865  10.004   2.082  10.867
38620SOL     OW17866   9.412   2.203   9.339
38620SOL    HW117867   9.318   2.202   9.321
38620SOL    HW217868   9.443   2.277   9.283
38621SOL     OW17869  10.724   2.713  10.730
38621SOL    HW117870  10.670   2.774  10.677
38621SOL    HW217871  10.813   2.741  10.706
38622SOL     OW17872   9.358   2.025   9.606
38622SOL    HW117873   9.357   2.111   9.562
38622SOL    HW217874   9.441   1.987   9.572
38623SOL     OW17875  10.510   3.226   9.426
38623SOL    HW117876  10.435   3.166   9.428
38623SOL    HW217877  10.537   3.228   9.520
38624SOL     OW17878   9.942   2.679  10.766
38624SOL    HW117879  10.002   2.751  10.740
38624SOL    HW217880  10.005   2.605  10.773
38625SOL     OW17881  10.802   3.637  10.301
38625SOL    HW117882  10.846   3.644  10.216
38625SOL    HW217883  10.877   3.651  10.363
38626SOL     OW17884  10.029   2.411  11.033
38626SOL    HW117885  10.061   2.490  11.081
38626SOL    HW217886  10.098   2.346  11.049
38627SOL     OW17887   9.688   3.588  10.873
38627SOL    HW117888   9.610   3.642  10.852
38627SOL    HW217889   9.650   3.521  10.933
38628SOL     OW17890  10.990   2.730  10.541
38628SOL    HW117891  10.986   2.661  10.473
38628SOL    HW217892  10.969   2.811  10.491
38629SOL     OW17893  10.520   2.187   9.773
38629SOL    HW117894  10.575   2.110   9.754
38629SOL    HW217895  10.569   2.228   9.847
38630SOL     OW17896   9.906   2.605   9.967
38630SOL    HW117897   9.940   2.693   9.951
38630SOL    HW217898   9.825   2.603   9.914
38631SOL     OW17899  11.049   2.233  10.913
38631SOL    HW117900  11.020   2.307  10.858
38631SOL    HW217901  10.978   2.222  10.978
38632SOL     OW17902  11.042   2.775  10.806
38632SOL    HW117903  11.028   2.870  10.805
38632SOL    HW217904  11.041   2.751  10.712
38633SOL     OW17905  10.162   3.227   9.342
38633SOL    HW117906  10.149   3.241   9.437
38633SOL    HW217907  10.193   3.313   9.310
38634SOL     OW17908   9.991   3.674  10.270
38634SOL    HW117909   9.949   3.756  10.240
38634SOL    HW217910  10.060   3.658  10.203
38635SOL     OW17911  10.190   2.821  10.167
38635SOL    HW117912  10.240   2.744  10.198
38635SOL    HW217913  10.155   2.861  10.248
38636SOL     OW17914  10.415   2.874   9.416
38636SOL    HW117915  10.380   2.911   9.333
38636SOL    HW217916  10.487   2.816   9.384
38637SOL     OW17917   0.060   3.413  10.169
38637SOL    HW117918   0.014   3.395  10.086
38637SOL    HW217919   0.077   3.323  10.202
38638SOL     OW17920   9.399   3.117   9.990
38638SOL    HW117921   9.390   3.060  10.067
38638SOL    HW217922   9.480   3.083   9.950
38639SOL     OW17923  10.000   3.289  10.937
38639SOL    HW117924   9.937   3.227  10.978
38639SOL    HW217925   9.943   3.364  10.918
38640SOL     OW17926   0.013   2.045  10.561
38640SOL    HW117927   0.038   1.952  10.565
38640SOL    HW217928  11.088   2.056  10.469
38641SOL     OW17929   9.755   2.289   9.833
38641SOL    HW117930   9.778   2.212   9.780
38641SOL    HW217931   9.703   2.250   9.906
38642SOL     OW17932  10.989   3.371  10.452
38642SOL    HW117933  10.934   3.334  10.382
38642SOL    HW217934  11.024   3.290  10.494
38643SOL     OW17935   9.661   2.413  10.595
38643SOL    HW117936   9.711   2.351  10.651
38643SOL    HW217937   9.664   2.371  10.507
38644SOL     OW17938  10.140   3.456   9.988
38644SOL    HW117939  10.138   3.510   9.907
38644SOL    HW217940  10.055   3.410   9.983
38645SOL     OW17941  10.717   2.076  10.417
38645SOL    HW117942  10.749   1.994  10.458
38645SOL    HW217943  10.689   2.129  10.495
38646SOL     OW17944  10.330   1.862  10.446
38646SOL    HW117945  10.285   1.799  10.386
38646SOL    HW217946  10.420   1.823  10.451
38647SOL     OW17947  10.108   3.201   9.620
38647SOL    HW117948  10.064   3.115   9.631
38647SOL    HW217949  10.189   3.189   9.672
38648SOL     OW17950   9.928   3.413  10.610
38648SOL    HW117951   9.926   3.500  10.656
38648SOL    HW217952   9.993   3.428  10.541
38649SOL     OW17953  10.663   1.910   9.508
38649SOL    HW117954  10.670   1.851   9.432
38649SOL    HW217955  10.576   1.880   9.542
38650SOL     OW17956  10.637   2.334   9.988
38650SOL    HW117957  10.566   2.400   9.978
38650SOL    HW217958  10.618   2.296  10.076
38651SOL     OW17959  10.914   2.041  10.205
38651SOL    HW117960  10.835   2.049  10.260
38651SOL    HW217961  10.903   2.112  10.142
38652SOL     OW17962   9.358   2.932   9.625
38652SOL    HW117963   9.448   2.920   9.591
38652SOL    HW217964   9.335   2.840   9.649
38653SOL     OW17965  10.202   3.508   9.652
38653SOL    HW117966  10.128   3.491   9.591
38653SOL    HW217967  10.177   3.592   9.696
38654SOL     OW17968   9.552   4.372   0.150
38654SOL    HW117969   9.464   4.343   0.178
38654SOL    HW217970   9.564   4.332   0.063
38655SOL     OW17971   9.542   3.998   0.995
38655SOL    HW117972   9.567   3.980   1.088
38655SOL    HW217973   9.456   3.953   0.988
38656SOL     OW17974   9.312   4.120   0.635
38656SOL    HW117975   9.234   4.147   0.689
38656SOL    HW217976   9.276   4.044   0.590
38657SOL     OW17977   9.885   5.020   1.190
38657SOL    HW117978   9.800   5.026   1.143
38657SOL    HW217979   9.895   5.110   1.225
38658SOL     OW17980  10.881   5.242   0.724
38658SOL    HW117981  10.837   5.208   0.804
38658SOL    HW217982  10.815   5.227   0.655
38659SOL     OW17983  10.439   4.424   0.697
38659SOL    HW117984  10.477   4.513   0.687
38659SOL    HW217985  10.418   4.424   0.792
38660SOL     OW17986  11.088   4.335   0.218
38660SOL    HW117987  11.026   4.363   0.149
38660SOL    HW217988  11.040   4.261   0.260
38661SOL     OW17989  10.037   4.879   1.012
38661SOL    HW117990   9.982   4.924   1.079
38661SOL    HW217991  10.082   4.956   0.973
38662SOL     OW17992  10.186   4.486   1.809
38662SOL    HW117993  10.159   4.545   1.881
38662SOL    HW217994  10.196   4.545   1.733
38663SOL     OW17995   9.998   4.749   0.623
38663SOL    HW117996  10.063   4.728   0.691
38663SOL    HW217997   9.926   4.789   0.676
38664SOL     OW17998  10.008   4.880   1.801
38664SOL    HW117999  10.054   4.964   1.820
38664SOL    HW218000   9.918   4.910   1.778
38665SOL     OW18001   9.632   5.153   1.075
38665SOL    HW118002   9.559   5.110   1.027
38665SOL    HW218003   9.679   5.203   1.005
38666SOL     OW18004  10.767   5.231   1.375
38666SOL    HW118005  10.788   5.321   1.400
38666SOL    HW218006  10.692   5.214   1.435
38667SOL     OW18007   9.743   4.117   1.527
38667SOL    HW118008   9.817   4.055   1.519
38667SOL    HW218009   9.665   4.061   1.511
38668SOL     OW18010   9.541   5.445   0.503
38668SOL    HW118011   9.577   5.530   0.536
38668SOL    HW218012   9.575   5.443   0.412
38669SOL     OW18013  10.437   5.065   1.667
38669SOL    HW118014  10.471   5.063   1.757
38669SOL    HW218015  10.385   4.983   1.667
38670SOL     OW18016   9.555   5.149   0.525
38670SOL    HW118017   9.557   5.244   0.543
38670SOL    HW218018   9.489   5.117   0.589
38671SOL     OW18019   9.576   4.815   0.901
38671SOL    HW118020   9.573   4.737   0.957
38671SOL    HW218021   9.524   4.879   0.953
38672SOL     OW18022   9.918   5.508   1.423
38672SOL    HW118023   9.833   5.492   1.468
38672SOL    HW218024   9.932   5.603   1.440
38673SOL     OW18025   9.886   4.715   0.146
38673SOL    HW118026   9.926   4.774   0.081
38673SOL    HW218027   9.932   4.745   0.228
38674SOL     OW18028   9.439   4.386   0.558
38674SOL    HW118029   9.405   4.297   0.576
38674SOL    HW218030   9.426   4.432   0.643
38675SOL     OW18031   9.372   5.320   0.124
38675SOL    HW118032   9.350   5.230   0.155
38675SOL    HW218033   9.343   5.373   0.200
38676SOL     OW18034  10.984   4.684   0.642
38676SOL    HW118035  11.057   4.621   0.638
38676SOL    HW218036  11.017   4.759   0.592
38677SOL     OW18037   9.441   4.463   1.582
38677SOL    HW118038   9.535   4.482   1.574
38677SOL    HW218039   9.411   4.547   1.623
38678SOL     OW18040   9.893   5.126   0.742
38678SOL    HW118041   9.863   5.032   0.749
38678SOL    HW218042   9.881   5.141   0.646
38679SOL     OW18043  10.603   4.965   1.427
38679SOL    HW118044  10.622   4.895   1.362
38679SOL    HW218045  10.669   4.951   1.498
38680SOL     OW18046  10.150   3.740   0.459
38680SOL    HW118047  10.179   3.832   0.470
38680SOL    HW218048  10.056   3.744   0.485
38681SOL     OW18049   9.493   4.703   1.259
38681SOL    HW118050   9.582   4.667   1.248
38681SOL    HW218051   9.436   4.632   1.227
38682SOL     OW18052  10.856   4.737   0.210
38682SOL    HW118053  10.783   4.680   0.239
38682SOL    HW218054  10.907   4.750   0.290
38683SOL     OW18055  10.488   5.524   1.612
38683SOL    HW118056  10.479   5.583   1.536
38683SOL    HW218057  10.504   5.438   1.568
38684SOL     OW18058   9.637   3.967   1.800
38684SOL    HW118059   9.710   4.026   1.822
38684SOL    HW218060   9.563   4.010   1.845
38685SOL     OW18061  10.751   5.158   0.949
38685SOL    HW118062  10.690   5.175   1.024
38685SOL    HW218063  10.735   5.063   0.931
38686SOL     OW18064  10.982   5.452   0.598
38686SOL    HW118065  10.951   5.423   0.511
38686SOL    HW218066  10.956   5.377   0.654
38687SOL     OW18067   9.897   4.438   0.265
38687SOL    HW118068   9.907   4.528   0.230
38687SOL    HW218069   9.840   4.449   0.343
38688SOL     OW18070  10.569   4.070   0.895
38688SOL    HW118071  10.481   4.041   0.925
38688SOL    HW218072  10.625   4.029   0.964
38689SOL     OW18073  10.875   5.384   0.332
38689SOL    HW118074  10.961   5.420   0.310
38689SOL    HW218075  10.836   5.373   0.243
38690SOL     OW18076  10.112   4.346   1.464
38690SOL    HW118077  10.095   4.312   1.555
38690SOL    HW218078  10.056   4.287   1.410
38691SOL     OW18079  10.695   4.216   1.669
38691SOL    HW118080  10.695   4.267   1.752
38691SOL    HW218081  10.747   4.136   1.693
38692SOL     OW18082  10.270   4.615   1.580
38692SOL    HW118083  10.301   4.528   1.547
38692SOL    HW218084  10.221   4.648   1.501
38693SOL     OW18085  10.323   4.131   1.251
38693SOL    HW118086  10.239   4.126   1.298
38693SOL    HW218087  10.305   4.083   1.169
38694SOL     OW18088  10.356   4.408   0.416
38694SOL    HW118089  10.366   4.424   0.512
38694SOL    HW218090  10.268   4.364   0.412
38695SOL     OW18091   9.416   4.537   0.777
38695SOL    HW118092   9.488   4.532   0.843
38695SOL    HW218093   9.366   4.614   0.810
38696SOL     OW18094   9.418   5.543   1.563
38696SOL    HW118095   9.430   5.535   1.660
38696SOL    HW218096   9.325   5.564   1.556
38697SOL     OW18097  10.206   4.092   0.215
38697SOL    HW118098  10.241   4.144   0.140
38697SOL    HW218099  10.217   4.001   0.184
38698SOL     OW18100  11.019   4.299   1.828
38698SOL    HW118101  10.981   4.374   1.778
38698SOL    HW218102  11.031   4.234   1.756
38699SOL     OW18103  10.678   4.897   0.579
38699SOL    HW118104  10.726   4.886   0.497
38699SOL    HW218105  10.610   4.960   0.550
38700SOL     OW18106   9.856   3.918   0.900
38700SOL    HW118107   9.867   3.937   0.995
38700SOL    HW218108   9.848   4.006   0.861
38701SOL     OW18109  10.320   5.162   0.481
38701SOL    HW118110  10.284   5.235   0.426
38701SOL    HW218111  10.311   5.199   0.570
38702SOL     OW18112   9.655   5.539   0.855
38702SOL    HW118113   9.709   5.459   0.863
38702SOL    HW218114   9.715   5.609   0.885
38703SOL     OW18115  11.082   4.762   0.894
38703SOL    HW118116  11.021   4.765   0.819
38703SOL    HW218117  11.022   4.768   0.971
38704SOL     OW18118  10.531   5.270   1.498
38704SOL    HW118119  10.510   5.200   1.562
38704SOL    HW218120  10.474   5.244   1.424
38705SOL     OW18121   9.638   4.689   0.275
38705SOL    HW118122   9.722   4.700   0.228
38705SOL    HW218123   9.610   4.601   0.249
38706SOL     OW18124  10.758   4.490   0.708
38706SOL    HW118125  10.753   4.425   0.779
38706SOL    HW218126  10.846   4.527   0.714
38707SOL     OW18127   9.767   4.999   1.723
38707SOL    HW118128   9.725   5.006   1.634
38707SOL    HW218129   9.687   5.008   1.779
38708SOL     OW18130  10.388   5.496   0.210
38708SOL    HW118131  10.339   5.439   0.271
38708SOL    HW218132  10.432   5.433   0.149
38709SOL     OW18133   9.476   4.012   1.490
38709SOL    HW118134   9.406   4.070   1.523
38709SOL    HW218135   9.464   3.931   1.540
38710SOL     OW18136   9.775   5.461   0.301
38710SOL    HW118137   9.806   5.507   0.381
38710SOL    HW218138   9.854   5.463   0.246
38711SOL     OW18139  10.727   3.840   0.458
38711SOL    HW118140  10.715   3.814   0.365
38711SOL    HW218141  10.823   3.832   0.471
38712SOL     OW18142   9.561   5.518   1.230
38712SOL    HW118143   9.615   5.447   1.267
38712SOL    HW218144   9.548   5.490   1.139
38713SOL     OW18145  10.279   5.430   0.869
38713SOL    HW118146  10.362   5.382   0.880
38713SOL    HW218147  10.227   5.371   0.811
38714SOL     OW18148   9.718   4.398   0.481
38714SOL    HW118149   9.729   4.301   0.492
38714SOL    HW218150   9.625   4.408   0.509
38715SOL     OW18151  10.820   3.987   1.737
38715SOL    HW118152  10.811   3.959   1.829
38715SOL    HW218153  10.836   3.904   1.687
38716SOL     OW18154   9.931   3.827   0.106
38716SOL    HW118155  10.023   3.813   0.133
38716SOL    HW218156   9.932   3.814   0.010
38717SOL     OW18157  10.072   3.986   1.742
38717SOL    HW118158  10.148   3.925   1.736
38717SOL    HW218159  10.070   4.008   1.836
38718SOL     OW18160  10.196   5.274   1.189
38718SOL    HW118161  10.178   5.244   1.098
38718SOL    HW218162  10.255   5.205   1.222
38719SOL     OW18163  10.656   4.320   1.426
38719SOL    HW118164  10.677   4.265   1.505
38719SOL    HW218165  10.672   4.409   1.459
38720SOL     OW18166  10.129   5.122   0.938
38720SOL    HW118167  10.218   5.111   0.901
38720SOL    HW218168  10.074   5.133   0.859
38721SOL     OW18169  10.250   4.238   0.899
38721SOL    HW118170  10.226   4.219   0.806
38721SOL    HW218171  10.264   4.149   0.934
38722SOL     OW18172   9.882   3.775   0.502
38722SOL    HW118173   9.804   3.784   0.560
38722SOL    HW218174   9.868   3.853   0.443
38723SOL     OW18175  10.751   4.894  11.100
38723SOL    HW118176  10.783   4.831   0.066
38723SOL    HW218177  10.687   4.946   0.047
38724SOL     OW18178   9.590   3.790   0.212
38724SOL    HW118179   9.627   3.831   0.131
38724SOL    HW218180   9.659   3.725   0.234
38725SOL     OW18181  10.260   3.990   0.462
38725SOL    HW118182  10.246   4.034   0.376
38725SOL    HW218183  10.356   3.999   0.474
38726SOL     OW18184  10.372   4.392   1.469
38726SOL    HW118185  10.288   4.342   1.472
38726SOL    HW218186  10.439   4.322   1.475
38727SOL     OW18187  10.547   5.312   0.798
38727SOL    HW118188  10.564   5.385   0.736
38727SOL    HW218189  10.634   5.301   0.839
38728SOL     OW18190   9.789   4.873   0.740
38728SOL    HW118191   9.716   4.851   0.801
38728SOL    HW218192   9.746   4.852   0.653
38729SOL     OW18193  10.626   5.539   0.645
38729SOL    HW118194  10.669   5.595   0.578
38729SOL    HW218195  10.558   5.599   0.681
38730SOL     OW18196  10.298   4.253   0.022
38730SOL    HW118197  10.254   4.340   0.020
38730SOL    HW218198  10.385   4.276   0.058
38731SOL     OW18199   9.380   4.281   1.394
38731SOL    HW118200   9.474   4.264   1.377
38731SOL    HW218201   9.385   4.358   1.454
38732SOL     OW18202   9.870   3.969   1.175
38732SOL    HW118203   9.918   3.899   1.222
38732SOL    HW218204   9.778   3.953   1.205
38733SOL     OW18205  10.193   4.170   0.651
38733SOL    HW118206  10.150   4.232   0.590
38733SOL    HW218207  10.210   4.094   0.593
38734SOL     OW18208  10.308   3.814   0.770
38734SOL    HW118209  10.298   3.796   0.676
38734SOL    HW218210  10.296   3.726   0.811
38735SOL     OW18211  10.733   4.896   0.887
38735SOL    HW118212  10.697   4.808   0.901
38735SOL    HW218213  10.722   4.906   0.791
38736SOL     OW18214  10.771   4.319   1.009
38736SOL    HW118215  10.719   4.237   1.010
38736SOL    HW218216  10.860   4.289   1.030
38737SOL     OW18217   0.116   4.532   0.354
38737SOL    HW118218   0.114   4.483   0.440
38737SOL    HW218219   0.059   4.472   0.301
38738SOL     OW18220   9.812   5.157   0.151
38738SOL    HW118221   9.729   5.140   0.199
38738SOL    HW218222   9.805   5.095   0.076
38739SOL     OW18223  10.692   4.326   0.079
38739SOL    HW118224  10.641   4.298   0.158
38739SOL    HW218225  10.744   4.247   0.062
38740SOL     OW18226   9.816   3.954   0.321
38740SOL    HW118227   9.842   3.909   0.238
38740SOL    HW218228   9.792   4.042   0.286
38741SOL     OW18229  11.046   4.966   1.607
38741SOL    HW118230   0.031   4.928   1.585
38741SOL    HW218231  11.069   5.039   1.666
38742SOL     OW18232  10.375   5.084   1.330
38742SOL    HW118233  10.294   5.049   1.368
38742SOL    HW218234  10.444   5.037   1.381
38743SOL     OW18235  10.916   5.341   1.633
38743SOL    HW118236  10.927   5.411   1.568
38743SOL    HW218237  11.006   5.322   1.661
38744SOL     OW18238  10.454   4.933   1.105
38744SOL    HW118239  10.375   4.961   1.152
38744SOL    HW218240  10.437   4.966   1.016
38745SOL     OW18241  10.915   4.836   1.090
38745SOL    HW118242  10.905   4.896   1.166
38745SOL    HW218243  10.845   4.868   1.032
38746SOL     OW18244  10.224   3.829   1.390
38746SOL    HW118245  10.255   3.796   1.304
38746SOL    HW218246  10.307   3.864   1.428
38747SOL     OW18247  10.308   4.837   1.740
38747SOL    HW118248  10.218   4.866   1.764
38747SOL    HW218249  10.291   4.760   1.682
38748SOL     OW18250  10.037   4.791   0.352
38748SOL    HW118251  10.025   4.776   0.449
38748SOL    HW218252  10.111   4.730   0.330
38749SOL     OW18253   9.722   4.532   1.261
38749SOL    HW118254   9.793   4.533   1.328
38749SOL    HW218255   9.686   4.442   1.270
38750SOL     OW18256  10.598   4.111   1.270
38750SOL    HW118257  10.628   4.191   1.318
38750SOL    HW218258  10.503   4.129   1.260
38751SOL     OW18259   9.386   5.296   1.344
38751SOL    HW118260   9.377   5.392   1.329
38751SOL    HW218261   9.483   5.284   1.346
38752SOL     OW18262   9.681   4.820   0.506
38752SOL    HW118263   9.678   4.896   0.447
38752SOL    HW218264   9.661   4.748   0.443
38753SOL     OW18265   9.849   4.260   0.868
38753SOL    HW118266   9.878   4.323   0.800
38753SOL    HW218267   9.920   4.264   0.933
38754SOL     OW18268  10.553   5.080   0.398
38754SOL    HW118269  10.598   5.161   0.428
38754SOL    HW218270  10.461   5.099   0.426
38755SOL     OW18271  10.603   5.199   1.165
38755SOL    HW118272  10.664   5.207   1.241
38755SOL    HW218273  10.537   5.135   1.196
38756SOL     OW18274  10.883   4.358   0.453
38756SOL    HW118275  10.826   4.367   0.531
38756SOL    HW218276  10.868   4.441   0.407
38757SOL     OW18277   9.648   5.241   1.321
38757SOL    HW118278   9.637   5.205   1.231
38757SOL    HW218279   9.744   5.260   1.321
38758SOL     OW18280   9.744   4.456   1.627
38758SOL    HW118281   9.800   4.503   1.563
38758SOL    HW218282   9.777   4.365   1.620
38759SOL     OW18283  10.923   4.487   1.670
38759SOL    HW118284  10.834   4.524   1.670
38759SOL    HW218285  10.968   4.546   1.608
38760SOL     OW18286  10.288   3.830   1.733
38760SOL    HW118287  10.350   3.904   1.735
38760SOL    HW218288  10.343   3.759   1.697
38761SOL     OW18289   9.807   3.748   1.746
38761SOL    HW118290   9.766   3.691   1.679
38761SOL    HW218291   9.742   3.820   1.754
38762SOL     OW18292   9.923   4.609   1.057
38762SOL    HW118293   9.932   4.705   1.041
38762SOL    HW218294   9.850   4.603   1.120
38763SOL     OW18295  10.677   4.582   1.041
38763SOL    HW118296  10.594   4.546   1.005
38763SOL    HW218297  10.732   4.501   1.041
38764SOL     OW18298  10.541   4.238   0.284
38764SOL    HW118299  10.544   4.160   0.343
38764SOL    HW218300  10.476   4.294   0.331
38765SOL     OW18301   9.615   3.930   1.251
38765SOL    HW118302   9.560   3.960   1.326
38765SOL    HW218303   9.596   3.834   1.251
38766SOL     OW18304   9.335   5.030   1.285
38766SOL    HW118305   9.369   4.971   1.355
38766SOL    HW218306   9.346   5.119   1.322
38767SOL     OW18307  10.048   4.374   1.058
38767SOL    HW118308  10.113   4.371   0.987
38767SOL    HW218309  10.005   4.462   1.046
38768SOL     OW18310   9.633   3.798   0.615
38768SOL    HW118311   9.597   3.883   0.646
38768SOL    HW218312   9.629   3.745   0.697
38769SOL     OW18313  10.918   4.126   0.322
38769SOL    HW118314  10.939   4.062   0.392
38769SOL    HW218315  10.895   4.206   0.375
38770SOL     OW18316  10.385   4.461   0.971
38770SOL    HW118317  10.364   4.475   1.066
38770SOL    HW218318  10.340   4.375   0.954
38771SOL     OW18319  10.294   5.290   1.714
38771SOL    HW118320  10.286   5.337   1.629
38771SOL    HW218321  10.322   5.201   1.686
38772SOL     OW18322   9.656   4.627   1.806
38772SOL    HW118323   9.735   4.656   1.853
38772SOL    HW218324   9.689   4.551   1.753
38773SOL     OW18325  10.873   4.027   0.083
38773SOL    HW118326  10.809   3.957   0.099
38773SOL    HW218327  10.886   4.062   0.174
38774SOL     OW18328  10.623   4.579   0.007
38774SOL    HW118329  10.651   4.491   0.038
38774SOL    HW218330  10.645   4.578  11.015
38775SOL     OW18331  10.380   5.083   0.856
38775SOL    HW118332  10.385   5.008   0.793
38775SOL    HW218333  10.447   5.146   0.824
38776SOL     OW18334   9.598   4.529   0.988
38776SOL    HW118335   9.691   4.538   0.962
38776SOL    HW218336   9.596   4.437   1.020
38777SOL     OW18337   9.624   4.257   1.005
38777SOL    HW118338   9.600   4.164   0.993
38777SOL    HW218339   9.700   4.265   0.942
38778SOL     OW18340  10.450   4.097   1.669
38778SOL    HW118341  10.410   4.145   1.745
38778SOL    HW218342  10.543   4.125   1.676
38779SOL     OW18343  10.464   3.916   1.472
38779SOL    HW118344  10.459   3.985   1.541
38779SOL    HW218345  10.517   3.959   1.404
38780SOL     OW18346   9.301   5.069   0.220
38780SOL    HW118347   9.215   5.073   0.173
38780SOL    HW218348   9.317   4.973   0.224
38781SOL     OW18349   9.404   5.508   0.933
38781SOL    HW118350   9.376   5.443   0.866
38781SOL    HW218351   9.497   5.527   0.904
38782SOL     OW18352   9.793   5.296   0.916
38782SOL    HW118353   9.864   5.363   0.923
38782SOL    HW218354   9.831   5.232   0.852
38783SOL     OW18355  10.307   4.495   1.223
38783SOL    HW118356  10.339   4.455   1.306
38783SOL    HW218357  10.212   4.481   1.230
38784SOL     OW18358   9.340   4.251   1.114
38784SOL    HW118359   9.420   4.240   1.062
38784SOL    HW218360   9.373   4.271   1.202
38785SOL     OW18361   9.527   4.235   1.709
38785SOL    HW118362   9.589   4.196   1.645
38785SOL    HW218363   9.484   4.306   1.657
38786SOL     OW18364  10.692   4.648   1.608
38786SOL    HW118365  10.715   4.723   1.666
38786SOL    HW218366  10.597   4.656   1.604
38787SOL     OW18367  10.117   4.292   0.382
38787SOL    HW118368  10.134   4.221   0.317
38787SOL    HW218369  10.043   4.340   0.341
38788SOL     OW18370   9.558   5.263   1.725
38788SOL    HW118371   9.546   5.330   1.793
38788SOL    HW218372   9.558   5.181   1.777
38789SOL     OW18373   9.983   4.205   1.272
38789SOL    HW118374   9.948   4.124   1.230
38789SOL    HW218375   9.996   4.265   1.196
38790SOL     OW18376  10.242   5.408   1.475
38790SOL    HW118377  10.203   5.380   1.392
38790SOL    HW218378  10.234   5.505   1.470
38791SOL     OW18379   9.762   4.196   0.204
38791SOL    HW118380   9.825   4.270   0.211
38791SOL    HW218381   9.677   4.243   0.213
38792SOL     OW18382   9.420   4.854   1.471
38792SOL    HW118383   9.427   4.795   1.550
38792SOL    HW218384   9.443   4.792   1.398
38793SOL     OW18385  10.629   4.767   1.234
38793SOL    HW118386  10.635   4.703   1.160
38793SOL    HW218387  10.565   4.831   1.196
38794SOL     OW18388  10.635   4.600   0.296
38794SOL    HW118389  10.557   4.563   0.342
38794SOL    HW218390  10.604   4.607   0.205
38795SOL     OW18391  10.565   5.456   1.092
38795SOL    HW118392  10.643   5.469   1.035
38795SOL    HW218393  10.568   5.360   1.111
38796SOL     OW18394   9.409   4.980   1.032
38796SOL    HW118395   9.376   4.998   1.123
38796SOL    HW218396   9.335   4.932   0.992
38797SOL     OW18397  10.004   5.361   1.740
38797SOL    HW118398   9.950   5.439   1.720
38797SOL    HW218399  10.089   5.382   1.698
38798SOL     OW18400  10.217   3.831   0.139
38798SOL    HW118401  10.280   3.794   0.075
38798SOL    HW218402  10.237   3.775   0.216
38799SOL     OW18403  11.029   3.850   0.541
38799SOL    HW118404  11.086   3.852   0.460
38799SOL    HW218405  11.033   3.757   0.570
38800SOL     OW18406  10.672   5.303   0.508
38800SOL    HW118407  10.740   5.329   0.443
38800SOL    HW218408  10.640   5.389   0.540
38801SOL     OW18409   9.463   5.521   1.827
38801SOL    HW118410   9.419   5.452   1.881
38801SOL    HW218411   9.506   5.573   1.897
38802SOL     OW18412  10.559   4.666   0.660
38802SOL    HW118413  10.634   4.604   0.671
38802SOL    HW218414  10.602   4.739   0.612
38803SOL     OW18415  10.104   4.972   1.414
38803SOL    HW118416  10.083   5.019   1.498
38803SOL    HW218417  10.026   4.994   1.360
38804SOL     OW18418  10.003   5.344   0.167
38804SOL    HW118419  10.004   5.349   0.071
38804SOL    HW218420   9.939   5.271   0.180
38805SOL     OW18421   9.558   4.045   0.705
38805SOL    HW118422   9.471   4.084   0.683
38805SOL    HW218423   9.562   4.057   0.802
38806SOL     OW18424  10.531   5.341   0.040
38806SOL    HW118425  10.522   5.245   0.057
38806SOL    HW218426  10.471   5.354  11.065
38807SOL     OW18427  10.141   4.716   1.369
38807SOL    HW118428  10.171   4.728   1.279
38807SOL    HW218429  10.132   4.808   1.401
38808SOL     OW18430  10.228   4.634   0.266
38808SOL    HW118431  10.303   4.667   0.211
38808SOL    HW218432  10.265   4.554   0.305
38809SOL     OW18433  10.805   5.367   0.070
38809SOL    HW118434  10.709   5.356   0.056
38809SOL    HW218435  10.842   5.349  11.084
38810SOL     OW18436   9.639   5.008   1.494
38810SOL    HW118437   9.627   5.075   1.425
38810SOL    HW218438   9.561   4.950   1.482
38811SOL     OW18439  10.879   5.009   1.291
38811SOL    HW118440  10.957   5.008   1.348
38811SOL    HW218441  10.829   5.086   1.326
38812SOL     OW18442  10.366   4.848   0.726
38812SOL    HW118443  10.296   4.789   0.760
38812SOL    HW218444  10.435   4.784   0.701
38813SOL     OW18445  10.334   3.957   0.990
38813SOL    HW118446  10.318   3.914   0.904
38813SOL    HW218447  10.345   3.879   1.048
38814SOL     OW18448   9.919   5.199   0.482
38814SOL    HW118449   9.979   5.167   0.412
38814SOL    HW218450   9.845   5.235   0.432
38815SOL     OW18451   9.561   5.092   0.268
38815SOL    HW118452   9.466   5.090   0.246
38815SOL    HW218453   9.559   5.119   0.362
38816SOL     OW18454   9.435   4.710   1.690
38816SOL    HW118455   9.361   4.700   1.754
38816SOL    HW218456   9.514   4.687   1.743
38817SOL     OW18457   9.979   3.898   1.495
38817SOL    HW118458  10.067   3.867   1.466
38817SOL    HW218459  10.002   3.941   1.580
38818SOL     OW18460   9.435   4.093   0.003
38818SOL    HW118461   9.359   4.038  11.081
38818SOL    HW218462   9.405   4.180  11.074
38819SOL     OW18463   9.359   3.883   0.322
38819SOL    HW118464   9.362   3.968   0.276
38819SOL    HW218465   9.449   3.849   0.302
38820SOL     OW18466  10.501   5.067   0.118
38820SOL    HW118467  10.405   5.064   0.102
38820SOL    HW218468  10.509   5.053   0.213
38821SOL     OW18469   9.930   4.536   1.432
38821SOL    HW118470   9.986   4.614   1.417
38821SOL    HW218471  10.000   4.468   1.441
38822SOL     OW18472  10.793   5.511   0.941
38822SOL    HW118473  10.799   5.542   0.850
38822SOL    HW218474  10.884   5.519   0.971
38823SOL     OW18475  10.055   4.263   1.708
38823SOL    HW118476  10.086   4.321   1.780
38823SOL    HW218477  10.048   4.176   1.749
38824SOL     OW18478  10.785   4.918   1.616
38824SOL    HW118479  10.768   4.920   1.713
38824SOL    HW218480  10.882   4.934   1.615
38825SOL     OW18481   9.680   5.456   1.557
38825SOL    HW118482   9.593   5.497   1.543
38825SOL    HW218483   9.653   5.373   1.600
38826SOL     OW18484  10.948   4.587   1.208
38826SOL    HW118485  10.993   4.513   1.164
38826SOL    HW218486  10.946   4.656   1.140
38827SOL     OW18487  10.531   4.040   0.475
38827SOL    HW118488  10.595   3.968   0.462
38827SOL    HW218489  10.572   4.093   0.546
38828SOL     OW18490   9.892   4.470   0.680
38828SOL    HW118491   9.932   4.550   0.644
38828SOL    HW218492   9.828   4.445   0.609
38829SOL     OW18493  11.057   4.099   1.636
38829SOL    HW118494  11.030   4.102   1.543
38829SOL    HW218495  10.989   4.041   1.673
38830SOL     OW18496  10.995   4.666   1.482
38830SOL    HW118497  11.055   4.738   1.509
38830SOL    HW218498  11.048   4.616   1.418
38831SOL     OW18499  10.229   5.090   0.053
38831SOL    HW118500  10.157   5.092   0.117
38831SOL    HW218501  10.221   5.175   0.008
38832SOL     OW18502   9.955   5.525   0.911
38832SOL    HW118503   9.934   5.620   0.905
38832SOL    HW218504  10.049   5.524   0.928
38833SOL     OW18505  10.195   4.673   0.842
38833SOL    HW118506  10.244   4.605   0.891
38833SOL    HW218507  10.151   4.723   0.913
38834SOL     OW18508  10.407   4.714   0.094
38834SOL    HW118509  10.385   4.783   0.029
38834SOL    HW218510  10.487   4.673   0.055
38835SOL     OW18511   0.033   5.268   0.867
38835SOL    HW118512  11.060   5.259   0.806
38835SOL    HW218513   0.063   5.177   0.875
38836SOL     OW18514   9.543   5.037   1.864
38836SOL    HW118515   9.466   4.984   1.842
38836SOL    HW218516   9.538   5.041   1.961
38837SOL     OW18517   9.405   4.972   0.663
38837SOL    HW118518   9.424   4.921   0.743
38837SOL    HW218519   9.470   4.937   0.601
38838SOL     OW18520   9.995   5.113   1.614
38838SOL    HW118521   9.913   5.068   1.642
38838SOL    HW218522   9.988   5.198   1.660
38839SOL     OW18523   0.014   3.882   1.189
38839SOL    HW118524   0.007   3.848   1.279
38839SOL    HW218525  11.071   3.812   1.140
38840SOL     OW18526   9.752   4.134   0.527
38840SOL    HW118527   9.776   4.058   0.472
38840SOL    HW218528   9.697   4.095   0.597
38841SOL     OW18529  10.966   5.237   1.102
38841SOL    HW118530  10.891   5.229   1.040
38841SOL    HW218531  10.958   5.155   1.152
38842SOL     OW18532   9.650   4.260   1.290
38842SOL    HW118533   9.722   4.221   1.343
38842SOL    HW218534   9.667   4.226   1.200
38843SOL     OW18535  10.135   5.294   0.678
38843SOL    HW118536  10.130   5.316   0.584
38843SOL    HW218537  10.045   5.264   0.696
38844SOL     OW18538  10.727   3.962   1.086
38844SOL    HW118539  10.767   3.889   1.136
38844SOL    HW218540  10.687   4.013   1.160
38845SOL     OW18541  10.332   3.730   1.156
38845SOL    HW118542  10.277   3.656   1.128
38845SOL    HW218543  10.422   3.692   1.144
38846SOL     OW18544  10.093   5.066   0.318
38846SOL    HW118545  10.057   4.975   0.322
38846SOL    HW218546  10.174   5.059   0.371
38847SOL     OW18547   9.914   5.281   1.272
38847SOL    HW118548   9.916   5.364   1.325
38847SOL    HW218549  10.004   5.282   1.237
38848SOL     OW18550  10.629   3.761   0.207
38848SOL    HW118551  10.670   3.702   0.142
38848SOL    HW218552  10.539   3.724   0.214
38849SOL     OW18553  10.638   4.212   0.669
38849SOL    HW118554  10.562   4.273   0.668
38849SOL    HW218555  10.625   4.166   0.754
38850SOL     OW18556  10.909   3.939   0.886
38850SOL    HW118557  10.842   3.942   0.956
38850SOL    HW218558  10.856   3.954   0.807
38851SOL     OW18559   9.367   4.811   0.272
38851SOL    HW118560   9.464   4.801   0.277
38851SOL    HW218561   9.337   4.725   0.306
38852SOL     OW18562  10.198   5.369   0.367
38852SOL    HW118563  10.122   5.349   0.309
38852SOL    HW218564  10.174   5.459   0.402
38853SOL     OW18565   9.539   4.373   1.988
38853SOL    HW118566   9.446   4.364   2.011
38853SOL    HW218567   9.543   4.347   1.895
38854SOL     OW18568   9.544   3.990   2.847
38854SOL    HW118569   9.564   3.978   2.942
38854SOL    HW218570   9.451   3.958   2.843
38855SOL     OW18571   9.324   4.131   2.516
38855SOL    HW118572   9.238   4.149   2.558
38855SOL    HW218573   9.298   4.093   2.431
38856SOL     OW18574   9.877   4.998   3.028
38856SOL    HW118575   9.811   5.068   3.029
38856SOL    HW218576   9.930   5.015   3.108
38857SOL     OW18577  10.877   5.241   2.574
38857SOL    HW118578  10.840   5.206   2.657
38857SOL    HW218579  10.807   5.220   2.509
38858SOL     OW18580  10.460   4.427   2.556
38858SOL    HW118581  10.490   4.518   2.539
38858SOL    HW218582  10.422   4.436   2.645
38859SOL     OW18583  11.087   4.317   2.090
38859SOL    HW118584  11.059   4.311   1.996
38859SOL    HW218585  11.038   4.243   2.130
38860SOL     OW18586  10.055   4.870   2.876
38860SOL    HW118587   9.991   4.912   2.938
38860SOL    HW218588  10.098   4.950   2.841
38861SOL     OW18589  10.202   4.519   3.681
38861SOL    HW118590  10.130   4.563   3.729
38861SOL    HW218591  10.196   4.559   3.592
38862SOL     OW18592   9.996   4.771   2.515
38862SOL    HW118593  10.059   4.730   2.578
38862SOL    HW218594   9.928   4.806   2.574
38863SOL     OW18595  10.002   4.885   3.673
38863SOL    HW118596  10.038   4.972   3.648
38863SOL    HW218597   9.909   4.898   3.642
38864SOL     OW18598   9.627   5.163   2.940
38864SOL    HW118599   9.554   5.132   2.885
38864SOL    HW218600   9.686   5.210   2.878
38865SOL     OW18601  10.779   5.231   3.275
38865SOL    HW118602  10.775   5.323   3.248
38865SOL    HW218603  10.691   5.220   3.314
38866SOL     OW18604   9.740   4.107   3.400
38866SOL    HW118605   9.810   4.046   3.374
38866SOL    HW218606   9.659   4.058   3.378
38867SOL     OW18607   9.544   5.415   2.352
38867SOL    HW118608   9.566   5.499   2.398
38867SOL    HW218609   9.588   5.428   2.267
38868SOL     OW18610  10.444   5.064   3.538
38868SOL    HW118611  10.470   5.058   3.631
38868SOL    HW218612  10.389   4.983   3.530
38869SOL     OW18613   9.556   5.145   2.384
38869SOL    HW118614   9.566   5.243   2.380
38869SOL    HW218615   9.487   5.137   2.451
38870SOL     OW18616   9.544   4.794   2.750
38870SOL    HW118617   9.583   4.730   2.812
38870SOL    HW218618   9.510   4.860   2.814
38871SOL     OW18619   9.905   5.529   3.278
38871SOL    HW118620   9.830   5.496   3.330
38871SOL    HW218621   9.922   5.617   3.316
38872SOL     OW18622   9.878   4.718   1.982
38872SOL    HW118623   9.930   4.763   1.912
38872SOL    HW218624   9.923   4.751   2.062
38873SOL     OW18625  10.927   3.810   3.359
38873SOL    HW118626  10.938   3.868   3.283
38873SOL    HW218627  10.909   3.870   3.432
38874SOL     OW18628   9.411   4.380   2.426
38874SOL    HW118629   9.399   4.288   2.454
38874SOL    HW218630   9.423   4.426   2.511
38875SOL     OW18631   9.377   5.326   1.986
38875SOL    HW118632   9.358   5.233   2.005
38875SOL    HW218633   9.340   5.371   2.064
38876SOL     OW18634  10.990   4.689   2.472
38876SOL    HW118635  11.055   4.628   2.508
38876SOL    HW218636  11.017   4.698   2.380
38877SOL     OW18637   9.429   4.483   3.513
38877SOL    HW118638   9.516   4.508   3.480
38877SOL    HW218639   9.375   4.477   3.433
38878SOL     OW18640   9.893   5.131   2.627
38878SOL    HW118641   9.856   5.041   2.638
38878SOL    HW218642   9.899   5.135   2.530
38879SOL     OW18643  10.608   4.962   3.299
38879SOL    HW118644  10.620   4.891   3.234
38879SOL    HW218645  10.675   4.942   3.369
38880SOL     OW18646  10.112   3.681   2.373
38880SOL    HW118647  10.157   3.766   2.350
38880SOL    HW218648  10.020   3.713   2.378
38881SOL     OW18649   9.487   4.696   3.109
38881SOL    HW118650   9.581   4.672   3.103
38881SOL    HW218651   9.443   4.610   3.098
38882SOL     OW18652  10.828   4.727   2.080
38882SOL    HW118653  10.757   4.673   2.122
38882SOL    HW218654  10.906   4.695   2.126
38883SOL     OW18655  10.511   5.536   3.466
38883SOL    HW118656  10.486   5.596   3.394
38883SOL    HW218657  10.507   5.449   3.422
38884SOL     OW18658   9.654   3.957   3.682
38884SOL    HW118659   9.698   4.038   3.655
38884SOL    HW218660   9.568   3.993   3.714
38885SOL     OW18661  10.760   5.148   2.813
38885SOL    HW118662  10.701   5.166   2.889
38885SOL    HW218663  10.741   5.054   2.794
38886SOL     OW18664  10.985   5.452   2.452
38886SOL    HW118665  10.949   5.406   2.376
38886SOL    HW218666  10.966   5.388   2.523
38887SOL     OW18667   9.886   4.426   2.129
38887SOL    HW118668   9.896   4.514   2.088
38887SOL    HW218669   9.815   4.441   2.194
38888SOL     OW18670  10.585   4.070   2.778
38888SOL    HW118671  10.495   4.038   2.795
38888SOL    HW218672  10.636   4.023   2.846
38889SOL     OW18673  10.858   5.359   2.155
38889SOL    HW118674  10.932   5.419   2.160
38889SOL    HW218675  10.842   5.359   2.058
38890SOL     OW18676  10.106   4.339   3.338
38890SOL    HW118677  10.090   4.304   3.428
38890SOL    HW218678  10.064   4.273   3.280
38891SOL     OW18679  10.705   4.204   3.547
38891SOL    HW118680  10.709   4.243   3.636
38891SOL    HW218681  10.757   4.123   3.557
38892SOL     OW18682  10.251   4.628   3.437
38892SOL    HW118683  10.293   4.546   3.404
38892SOL    HW218684  10.207   4.660   3.356
38893SOL     OW18685  10.306   4.123   3.106
38893SOL    HW118686  10.213   4.149   3.121
38893SOL    HW218687  10.299   4.076   3.023
38894SOL     OW18688  10.343   4.417   2.270
38894SOL    HW118689  10.356   4.424   2.367
38894SOL    HW218690  10.260   4.364   2.266
38895SOL     OW18691   9.446   4.535   2.645
38895SOL    HW118692   9.501   4.500   2.718
38895SOL    HW218693   9.475   4.626   2.645
38896SOL     OW18694   9.417   5.564   3.431
38896SOL    HW118695   9.427   5.546   3.527
38896SOL    HW218696   9.328   5.532   3.414
38897SOL     OW18697  10.135   4.076   2.021
38897SOL    HW118698  10.224   4.100   1.994
38897SOL    HW218699  10.151   4.026   2.103
38898SOL     OW18700  11.027   4.316   3.697
38898SOL    HW118701  10.989   4.388   3.643
38898SOL    HW218702  11.066   4.259   3.629
38899SOL     OW18703  10.697   4.902   2.436
38899SOL    HW118704  10.744   4.887   2.354
38899SOL    HW218705  10.620   4.952   2.406
38900SOL     OW18706   9.848   3.900   2.747
38900SOL    HW118707   9.856   3.919   2.843
38900SOL    HW218708   9.852   3.987   2.707
38901SOL     OW18709  10.332   5.185   2.357
38901SOL    HW118710  10.288   5.248   2.297
38901SOL    HW218711  10.310   5.221   2.444
38902SOL     OW18712   9.652   5.530   2.726
38902SOL    HW118713   9.698   5.445   2.746
38902SOL    HW218714   9.724   5.593   2.742
38903SOL     OW18715  11.092   4.753   2.741
38903SOL    HW118716  11.036   4.781   2.667
38903SOL    HW218717  11.030   4.752   2.817
38904SOL     OW18718  10.526   5.273   3.365
38904SOL    HW118719  10.502   5.209   3.434
38904SOL    HW218720  10.480   5.234   3.288
38905SOL     OW18721   9.625   4.665   2.108
38905SOL    HW118722   9.711   4.685   2.068
38905SOL    HW218723   9.597   4.588   2.057
38906SOL     OW18724  10.769   4.498   2.595
38906SOL    HW118725  10.763   4.443   2.674
38906SOL    HW218726  10.859   4.531   2.596
38907SOL     OW18727   9.762   4.982   3.583
38907SOL    HW118728   9.727   4.992   3.492
38907SOL    HW218729   9.680   4.995   3.634
38908SOL     OW18730  10.435   5.492   2.108
38908SOL    HW118731  10.360   5.443   2.146
38908SOL    HW218732  10.453   5.444   2.024
38909SOL     OW18733   9.483   4.012   3.355
38909SOL    HW118734   9.434   4.092   3.329
38909SOL    HW218735   9.421   3.968   3.416
38910SOL     OW18736   9.769   5.465   2.171
38910SOL    HW118737   9.816   5.505   2.247
38910SOL    HW218738   9.841   5.429   2.118
38911SOL     OW18739  10.730   3.825   2.318
38911SOL    HW118740  10.712   3.805   2.224
38911SOL    HW218741  10.826   3.832   2.322
38912SOL     OW18742   9.554   5.513   3.098
38912SOL    HW118743   9.621   5.462   3.146
38912SOL    HW218744   9.564   5.481   3.008
38913SOL     OW18745  10.278   5.419   2.745
38913SOL    HW118746  10.344   5.355   2.777
38913SOL    HW218747  10.229   5.368   2.678
38914SOL     OW18748   9.681   4.425   2.334
38914SOL    HW118749   9.713   4.334   2.355
38914SOL    HW218750   9.586   4.413   2.347
38915SOL     OW18751  10.831   3.960   3.588
38915SOL    HW118752  10.821   3.970   3.685
38915SOL    HW218753  10.778   3.880   3.573
38916SOL     OW18754   9.923   3.854   1.967
38916SOL    HW118755  10.019   3.843   1.971
38916SOL    HW218756   9.898   3.807   1.885
38917SOL     OW18757  10.084   3.995   3.620
38917SOL    HW118758  10.156   3.929   3.619
38917SOL    HW218759  10.023   3.957   3.687
38918SOL     OW18760  10.197   5.297   3.054
38918SOL    HW118761  10.178   5.257   2.967
38918SOL    HW218762  10.200   5.218   3.111
38919SOL     OW18763  10.656   4.311   3.272
38919SOL    HW118764  10.670   4.286   3.364
38919SOL    HW218765  10.675   4.407   3.272
38920SOL     OW18766  10.124   5.131   2.795
38920SOL    HW118767  10.210   5.116   2.751
38920SOL    HW218768  10.061   5.137   2.722
38921SOL     OW18769  10.236   4.235   2.772
38921SOL    HW118770  10.216   4.230   2.676
38921SOL    HW218771  10.262   4.144   2.791
38922SOL     OW18772   9.855   3.778   2.372
38922SOL    HW118773   9.790   3.806   2.437
38922SOL    HW218774   9.855   3.854   2.310
38923SOL     OW18775  10.745   4.887   1.875
38923SOL    HW118776  10.767   4.827   1.949
38923SOL    HW218777  10.676   4.942   1.915
38924SOL     OW18778   9.593   3.763   2.058
38924SOL    HW118779   9.655   3.832   2.031
38924SOL    HW218780   9.654   3.698   2.097
38925SOL     OW18781  10.365   4.400   3.331
38925SOL    HW118782  10.282   4.349   3.332
38925SOL    HW218783  10.434   4.332   3.327
38926SOL     OW18784  10.551   5.292   2.634
38926SOL    HW118785  10.550   5.371   2.579
38926SOL    HW218786  10.629   5.304   2.688
38927SOL     OW18787   9.765   4.894   2.605
38927SOL    HW118788   9.697   4.854   2.662
38927SOL    HW218789   9.738   4.863   2.516
38928SOL     OW18790  10.579   5.544   2.468
38928SOL    HW118791  10.625   5.605   2.407
38928SOL    HW218792  10.541   5.605   2.534
38929SOL     OW18793  10.363   4.247   1.877
38929SOL    HW118794  10.309   4.327   1.871
38929SOL    HW218795  10.424   4.265   1.950
38930SOL     OW18796   9.873   3.943   3.016
38930SOL    HW118797   9.924   3.891   3.078
38930SOL    HW218798   9.785   3.942   3.057
38931SOL     OW18799  10.191   4.199   2.515
38931SOL    HW118800  10.135   4.241   2.449
38931SOL    HW218801  10.215   4.116   2.468
38932SOL     OW18802  10.377   3.792   2.629
38932SOL    HW118803  10.324   3.816   2.552
38932SOL    HW218804  10.339   3.707   2.657
38933SOL     OW18805  10.736   4.885   2.740
38933SOL    HW118806  10.691   4.802   2.759
38933SOL    HW218807  10.724   4.893   2.644
38934SOL     OW18808  10.782   4.336   2.887
38934SOL    HW118809  10.731   4.255   2.868
38934SOL    HW218810  10.872   4.302   2.897
38935SOL     OW18811  11.101   4.546   2.236
38935SOL    HW118812   0.051   4.503   2.307
38935SOL    HW218813   0.003   4.475   2.169
38936SOL     OW18814   9.809   5.141   1.997
38936SOL    HW118815   9.725   5.131   2.046
38936SOL    HW218816   9.788   5.097   1.914
38937SOL     OW18817  10.713   4.318   1.931
38937SOL    HW118818  10.654   4.296   2.007
38937SOL    HW218819  10.782   4.251   1.941
38938SOL     OW18820   9.814   3.960   2.184
38938SOL    HW118821   9.865   3.926   2.108
38938SOL    HW218822   9.786   4.047   2.149
38939SOL     OW18823  11.046   4.965   3.469
38939SOL    HW118824   0.031   4.920   3.472
38939SOL    HW218825  11.070   5.051   3.435
38940SOL     OW18826  10.398   5.095   3.204
38940SOL    HW118827  10.308   5.061   3.222
38940SOL    HW218828  10.455   5.035   3.256
38941SOL     OW18829  10.934   5.345   3.517
38941SOL    HW118830  10.920   5.338   3.422
38941SOL    HW218831  11.000   5.277   3.533
38942SOL     OW18832  10.444   4.942   2.958
38942SOL    HW118833  10.365   4.955   3.012
38942SOL    HW218834  10.421   4.986   2.875
38943SOL     OW18835  10.936   4.826   2.960
38943SOL    HW118836  10.910   4.884   3.035
38943SOL    HW218837  10.874   4.857   2.892
38944SOL     OW18838  10.229   3.836   3.255
38944SOL    HW118839  10.256   3.806   3.166
38944SOL    HW218840  10.311   3.877   3.287
38945SOL     OW18841  10.306   4.838   3.604
38945SOL    HW118842  10.218   4.871   3.626
38945SOL    HW218843  10.287   4.771   3.536
38946SOL     OW18844  10.017   4.786   2.215
38946SOL    HW118845  10.016   4.774   2.311
38946SOL    HW218846  10.089   4.725   2.187
38947SOL     OW18847   9.732   4.550   3.124
38947SOL    HW118848   9.803   4.545   3.191
38947SOL    HW218849   9.701   4.458   3.124
38948SOL     OW18850  10.593   4.098   3.127
38948SOL    HW118851  10.623   4.180   3.173
38948SOL    HW218852  10.502   4.120   3.102
38949SOL     OW18853   9.390   5.296   3.203
38949SOL    HW118854   9.394   5.389   3.176
38949SOL    HW218855   9.485   5.271   3.202
38950SOL     OW18856   9.677   4.815   2.360
38950SOL    HW118857   9.695   4.885   2.297
38950SOL    HW218858   9.678   4.736   2.303
38951SOL     OW18859   9.844   4.259   2.714
38951SOL    HW118860   9.882   4.314   2.643
38951SOL    HW218861   9.906   4.277   2.788
38952SOL     OW18862  10.553   5.090   2.233
38952SOL    HW118863  10.608   5.158   2.276
38952SOL    HW218864  10.467   5.108   2.275
38953SOL     OW18865  10.609   5.195   3.033
38953SOL    HW118866  10.673   5.170   3.100
38953SOL    HW218867  10.532   5.139   3.056
38954SOL     OW18868  10.883   4.356   2.328
38954SOL    HW118869  10.822   4.409   2.382
38954SOL    HW218870  10.938   4.423   2.285
38955SOL     OW18871   9.651   5.229   3.187
38955SOL    HW118872   9.637   5.201   3.094
38955SOL    HW218873   9.748   5.245   3.185
38956SOL     OW18874   9.740   4.457   3.490
38956SOL    HW118875   9.800   4.495   3.423
38956SOL    HW218876   9.757   4.362   3.481
38957SOL     OW18877  10.904   4.503   3.550
38957SOL    HW118878  10.826   4.540   3.506
38957SOL    HW218879  10.974   4.537   3.490
38958SOL     OW18880  10.305   3.827   3.608
38958SOL    HW118881  10.360   3.904   3.591
38958SOL    HW218882  10.358   3.756   3.569
38959SOL     OW18883   9.811   3.733   3.615
38959SOL    HW118884   9.764   3.684   3.544
38959SOL    HW218885   9.752   3.809   3.628
38960SOL     OW18886   9.875   4.630   2.897
38960SOL    HW118887   9.921   4.715   2.908
38960SOL    HW218888   9.833   4.617   2.984
38961SOL     OW18889  10.690   4.603   2.888
38961SOL    HW118890  10.602   4.571   2.864
38961SOL    HW218891  10.735   4.518   2.903
38962SOL     OW18892  10.531   4.258   2.126
38962SOL    HW118893  10.549   4.179   2.182
38962SOL    HW218894  10.467   4.306   2.181
38963SOL     OW18895   9.614   3.935   3.118
38963SOL    HW118896   9.564   3.958   3.199
38963SOL    HW218897   9.593   3.840   3.110
38964SOL     OW18898   9.345   5.029   3.144
38964SOL    HW118899   9.368   4.971   3.219
38964SOL    HW218900   9.357   5.118   3.180
38965SOL     OW18901  10.020   4.364   2.906
38965SOL    HW118902  10.100   4.335   2.856
38965SOL    HW218903  10.006   4.456   2.879
38966SOL     OW18904   9.594   3.790   2.488
38966SOL    HW118905   9.589   3.883   2.519
38966SOL    HW218906   9.623   3.745   2.570
38967SOL     OW18907  10.942   4.112   2.215
38967SOL    HW118908  10.963   4.050   2.285
38967SOL    HW218909  10.906   4.188   2.265
38968SOL     OW18910  10.355   4.469   2.812
38968SOL    HW118911  10.346   4.486   2.908
38968SOL    HW218912  10.318   4.379   2.804
38969SOL     OW18913  10.287   5.297   3.564
38969SOL    HW118914  10.279   5.353   3.484
38969SOL    HW218915  10.290   5.208   3.524
38970SOL     OW18916   9.658   4.634   3.670
38970SOL    HW118917   9.746   4.649   3.706
38970SOL    HW218918   9.675   4.561   3.607
38971SOL     OW18919  10.797   4.004   2.007
38971SOL    HW118920  10.737   3.937   2.043
38971SOL    HW218921  10.845   4.035   2.086
38972SOL     OW18922  10.620   4.569   1.879
38972SOL    HW118923  10.655   4.485   1.915
38972SOL    HW218924  10.635   4.556   1.785
38973SOL     OW18925  10.373   5.084   2.708
38973SOL    HW118926  10.375   5.004   2.651
38973SOL    HW218927  10.441   5.142   2.670
38974SOL     OW18928   9.608   4.529   2.861
38974SOL    HW118929   9.703   4.547   2.859
38974SOL    HW218930   9.606   4.436   2.892
38975SOL     OW18931   9.617   4.251   2.859
38975SOL    HW118932   9.598   4.157   2.844
38975SOL    HW218933   9.693   4.264   2.798
38976SOL     OW18934  10.454   4.096   3.539
38976SOL    HW118935  10.407   4.151   3.605
38976SOL    HW218936  10.545   4.131   3.544
38977SOL     OW18937  10.475   3.925   3.330
38977SOL    HW118938  10.468   3.989   3.403
38977SOL    HW218939  10.513   3.980   3.260
38978SOL     OW18940   9.305   5.057   2.064
38978SOL    HW118941   9.217   5.076   2.023
38978SOL    HW218942   9.296   4.963   2.088
38979SOL     OW18943   9.399   5.505   2.807
38979SOL    HW118944   9.377   5.423   2.759
38979SOL    HW218945   9.491   5.522   2.776
38980SOL     OW18946   9.796   5.316   2.793
38980SOL    HW118947   9.867   5.382   2.809
38980SOL    HW218948   9.843   5.251   2.737
38981SOL     OW18949  10.300   4.491   3.075
38981SOL    HW118950  10.347   4.465   3.156
38981SOL    HW218951  10.208   4.487   3.104
38982SOL     OW18952   9.353   4.267   2.959
38982SOL    HW118953   9.443   4.251   2.927
38982SOL    HW218954   9.366   4.271   3.056
38983SOL     OW18955   9.537   4.244   3.585
38983SOL    HW118956   9.562   4.200   3.503
38983SOL    HW218957   9.492   4.324   3.552
38984SOL     OW18958  10.676   4.647   3.516
38984SOL    HW118959  10.693   4.743   3.513
38984SOL    HW218960  10.653   4.629   3.423
38985SOL     OW18961  10.112   4.299   2.224
38985SOL    HW118962  10.113   4.212   2.182
38985SOL    HW218963  10.035   4.341   2.184
38986SOL     OW18964   9.553   5.274   3.589
38986SOL    HW118965   9.539   5.337   3.661
38986SOL    HW218966   9.557   5.189   3.637
38987SOL     OW18967  10.029   4.193   3.125
38987SOL    HW118968   9.952   4.135   3.110
38987SOL    HW218969  10.011   4.263   3.058
38988SOL     OW18970  10.241   5.435   3.340
38988SOL    HW118971  10.231   5.388   3.256
38988SOL    HW218972  10.216   5.526   3.318
38989SOL     OW18973   9.749   4.198   2.055
38989SOL    HW118974   9.815   4.266   2.075
38989SOL    HW218975   9.670   4.254   2.040
38990SOL     OW18976   9.423   4.845   3.330
38990SOL    HW118977   9.437   4.802   3.417
38990SOL    HW218978   9.447   4.775   3.266
38991SOL     OW18979  10.609   4.780   3.088
38991SOL    HW118980  10.640   4.727   3.012
38991SOL    HW218981  10.549   4.844   3.044
38992SOL     OW18982  10.619   4.576   2.168
38992SOL    HW118983  10.544   4.534   2.211
38992SOL    HW218984  10.591   4.582   2.075
38993SOL     OW18985  11.021   5.478   2.977
38993SOL    HW118986   0.003   5.498   2.931
38993SOL    HW218987  11.014   5.381   2.967
38994SOL     OW18988  10.565   5.455   2.971
38994SOL    HW118989  10.648   5.475   2.924
38994SOL    HW218990  10.571   5.360   2.988
38995SOL     OW18991   9.391   4.955   2.898
38995SOL    HW118992   9.401   4.973   2.994
38995SOL    HW218993   9.297   4.975   2.890
38996SOL     OW18994   9.997   5.383   3.610
38996SOL    HW118995   9.966   5.468   3.577
38996SOL    HW218996  10.086   5.375   3.572
38997SOL     OW18997  11.044   3.855   2.409
38997SOL    HW118998  11.098   3.851   2.327
38997SOL    HW218999  11.039   3.761   2.437
38998SOL     OW19000  10.684   5.301   2.362
38998SOL    HW119001  10.740   5.322   2.284
38998SOL    HW219002  10.639   5.384   2.382
38999SOL     OW19003   9.454   5.521   3.695
38999SOL    HW119004   9.417   5.448   3.749
38999SOL    HW219005   9.502   5.571   3.763
39000SOL     OW19006  10.574   4.677   2.548
39000SOL    HW119007  10.644   4.611   2.564
39000SOL    HW219008  10.617   4.736   2.483
39001SOL     OW19009   9.986   5.338   2.030
39001SOL    HW119010   9.999   5.354   1.935
39001SOL    HW219011   9.929   5.259   2.028
39002SOL     OW19012   9.564   4.038   2.571
39002SOL    HW119013   9.479   4.085   2.559
39002SOL    HW219014   9.575   4.041   2.668
39003SOL     OW19015  10.508   5.360   1.888
39003SOL    HW119016  10.510   5.264   1.904
39003SOL    HW219017  10.444   5.369   1.815
39004SOL     OW19018  10.124   4.706   3.215
39004SOL    HW119019  10.163   4.726   3.129
39004SOL    HW219020  10.101   4.798   3.241
39005SOL     OW19021  10.216   4.631   2.132
39005SOL    HW119022  10.293   4.661   2.080
39005SOL    HW219023  10.249   4.550   2.174
39006SOL     OW19024  10.829   5.383   1.887
39006SOL    HW119025  10.735   5.363   1.887
39006SOL    HW219026  10.856   5.363   1.795
39007SOL     OW19027   9.644   4.998   3.342
39007SOL    HW119028   9.637   5.066   3.273
39007SOL    HW219029   9.563   4.945   3.328
39008SOL     OW19030  10.879   5.019   3.141
39008SOL    HW119031  10.967   5.013   3.182
39008SOL    HW219032  10.835   5.087   3.197
39009SOL     OW19033  10.362   4.840   2.587
39009SOL    HW119034  10.288   4.782   2.614
39009SOL    HW219035  10.438   4.778   2.587
39010SOL     OW19036  10.340   3.951   2.855
39010SOL    HW119037  10.337   3.906   2.768
39010SOL    HW219038  10.345   3.875   2.915
39011SOL     OW19039   9.931   5.197   2.365
39011SOL    HW119040   9.986   5.160   2.294
39011SOL    HW219041   9.859   5.239   2.318
39012SOL     OW19042   9.559   5.095   2.128
39012SOL    HW119043   9.462   5.085   2.118
39012SOL    HW219044   9.567   5.113   2.224
39013SOL     OW19045   9.439   4.772   3.591
39013SOL    HW119046   9.364   4.731   3.638
39013SOL    HW219047   9.514   4.717   3.623
39014SOL     OW19048   9.981   3.909   3.352
39014SOL    HW119049  10.068   3.880   3.318
39014SOL    HW219050  10.007   3.953   3.435
39015SOL     OW19051   9.401   4.085   1.898
39015SOL    HW119052   9.315   4.072   1.858
39015SOL    HW219053   9.441   4.150   1.837
39016SOL     OW19054  10.716   4.580   3.257
39016SOL    HW119055  10.670   4.640   3.196
39016SOL    HW219056  10.808   4.595   3.234
39017SOL     OW19057   9.354   3.892   2.157
39017SOL    HW119058   9.350   3.979   2.116
39017SOL    HW219059   9.439   3.860   2.122
39018SOL     OW19060  10.509   5.076   1.969
39018SOL    HW119061  10.416   5.048   1.973
39018SOL    HW219062  10.532   5.079   2.064
39019SOL     OW19063   9.927   4.531   3.304
39019SOL    HW119064   9.986   4.606   3.288
39019SOL    HW219065   9.993   4.460   3.314
39020SOL     OW19066  10.796   5.515   2.821
39020SOL    HW119067  10.833   5.531   2.734
39020SOL    HW219068  10.876   5.509   2.876
39021SOL     OW19069  10.061   4.258   3.585
39021SOL    HW119070  10.068   4.302   3.671
39021SOL    HW219071  10.067   4.164   3.608
39022SOL     OW19072  10.784   4.907   3.492
39022SOL    HW119073  10.770   4.915   3.589
39022SOL    HW219074  10.879   4.930   3.485
39023SOL     OW19075   9.678   5.460   3.423
39023SOL    HW119076   9.592   5.502   3.409
39023SOL    HW219077   9.651   5.375   3.462
39024SOL     OW19078  11.006   4.588   3.090
39024SOL    HW119079  11.008   4.511   3.032
39024SOL    HW219080  10.973   4.659   3.032
39025SOL     OW19081  10.578   4.054   2.298
39025SOL    HW119082  10.598   3.960   2.307
39025SOL    HW219083  10.593   4.088   2.387
39026SOL     OW19084   9.907   4.461   2.513
39026SOL    HW119085   9.956   4.539   2.486
39026SOL    HW219086   9.822   4.473   2.469
39027SOL     OW19087  11.065   4.107   3.502
39027SOL    HW119088  11.035   4.150   3.420
39027SOL    HW219089  10.987   4.057   3.530
39028SOL     OW19090  11.027   4.633   3.353
39028SOL    HW119091  11.029   4.730   3.352
39028SOL    HW219092  11.028   4.611   3.258
39029SOL     OW19093  10.175   5.088   1.896
39029SOL    HW119094  10.148   5.101   1.989
39029SOL    HW219095  10.187   5.179   1.863
39030SOL     OW19096   9.968   5.529   2.781
39030SOL    HW119097   9.964   5.625   2.766
39030SOL    HW219098  10.063   5.510   2.782
39031SOL     OW19099  10.178   4.666   2.699
39031SOL    HW119100  10.228   4.593   2.739
39031SOL    HW219101  10.157   4.722   2.776
39032SOL     OW19102  10.411   4.717   1.961
39032SOL    HW119103  10.379   4.770   1.885
39032SOL    HW219104  10.491   4.674   1.925
39033SOL     OW19105   0.063   5.264   2.701
39033SOL    HW119106  11.087   5.243   2.648
39033SOL    HW219107   0.072   5.184   2.756
39034SOL     OW19108   9.543   5.037   3.719
39034SOL    HW119109   9.475   4.973   3.693
39034SOL    HW219110   9.532   5.038   3.816
39035SOL     OW19111   9.410   4.942   2.517
39035SOL    HW119112   9.477   4.926   2.585
39035SOL    HW219113   9.464   4.938   2.436
39036SOL     OW19114  10.012   5.123   3.556
39036SOL    HW119115   9.945   5.076   3.506
39036SOL    HW219116   9.971   5.210   3.572
39037SOL     OW19117   0.002   3.895   3.070
39037SOL    HW119118   0.006   3.805   3.103
39037SOL    HW219119  11.092   3.882   2.975
39038SOL     OW19120   9.735   4.168   2.393
39038SOL    HW119121   9.794   4.105   2.348
39038SOL    HW219122   9.702   4.118   2.470
39039SOL     OW19123  10.987   5.221   2.964
39039SOL    HW119124  10.912   5.186   2.912
39039SOL    HW219125  11.012   5.144   3.017
39040SOL     OW19126   9.716   4.276   3.133
39040SOL    HW119127   9.686   4.230   3.212
39040SOL    HW219128   9.677   4.225   3.061
39041SOL     OW19129  10.135   5.316   2.539
39041SOL    HW119130  10.127   5.362   2.454
39041SOL    HW219131  10.049   5.274   2.549
39042SOL     OW19132  10.740   3.945   2.957
39042SOL    HW119133  10.769   3.864   3.000
39042SOL    HW219134  10.699   3.995   3.031
39043SOL     OW19135  10.327   3.724   3.014
39043SOL    HW119136  10.278   3.649   2.976
39043SOL    HW219137  10.419   3.690   3.010
39044SOL     OW19138  10.101   5.055   2.182
39044SOL    HW119139  10.059   4.967   2.177
39044SOL    HW219140  10.173   5.041   2.244
39045SOL     OW19141   9.902   5.298   3.131
39045SOL    HW119142   9.915   5.380   3.182
39045SOL    HW219143   9.993   5.278   3.108
39046SOL     OW19144  10.656   3.765   2.070
39046SOL    HW119145  10.657   3.728   1.981
39046SOL    HW219146  10.571   3.727   2.103
39047SOL     OW19147  10.635   4.196   2.537
39047SOL    HW119148  10.564   4.262   2.529
39047SOL    HW219149  10.621   4.159   2.626
39048SOL     OW19150  10.912   3.936   2.732
39048SOL    HW119151  10.853   3.926   2.809
39048SOL    HW219152  10.852   3.973   2.667
39049SOL     OW19153   9.342   4.804   2.170
39049SOL    HW119154   9.432   4.798   2.135
39049SOL    HW219155   9.327   4.710   2.195
39050SOL     OW19156  10.193   5.374   2.215
39050SOL    HW119157  10.118   5.357   2.154
39050SOL    HW219158  10.169   5.459   2.257
39051SOL     OW19159   9.547   4.365   3.862
39051SOL    HW119160   9.453   4.351   3.885
39051SOL    HW219161   9.549   4.344   3.767
39052SOL     OW19162   9.521   4.008   4.718
39052SOL    HW119163   9.545   3.982   4.809
39052SOL    HW219164   9.434   3.966   4.707
39053SOL     OW19165   9.313   4.130   4.347
39053SOL    HW119166   9.233   4.158   4.398
39053SOL    HW219167   9.282   4.047   4.310
39054SOL     OW19168   9.881   5.015   4.916
39054SOL    HW119169   9.794   5.006   4.874
39054SOL    HW219170   9.882   5.108   4.943
39055SOL     OW19171  10.875   5.260   4.447
39055SOL    HW119172  10.841   5.214   4.526
39055SOL    HW219173  10.808   5.240   4.380
39056SOL     OW19174  10.443   4.406   4.432
39056SOL    HW119175  10.476   4.495   4.410
39056SOL    HW219176  10.412   4.420   4.523
39057SOL     OW19177  11.090   4.316   3.956
39057SOL    HW119178  11.065   4.313   3.862
39057SOL    HW219179  11.042   4.240   3.992
39058SOL     OW19180  10.048   4.884   4.748
39058SOL    HW119181   9.988   4.925   4.813
39058SOL    HW219182  10.087   4.962   4.706
39059SOL     OW19183  10.189   4.475   5.525
39059SOL    HW119184  10.161   4.535   5.595
39059SOL    HW219185  10.197   4.535   5.448
39060SOL     OW19186   9.998   4.763   4.381
39060SOL    HW119187  10.059   4.728   4.448
39060SOL    HW219188   9.930   4.807   4.434
39061SOL     OW19189  10.022   4.887   5.525
39061SOL    HW119190  10.068   4.969   5.553
39061SOL    HW219191   9.936   4.921   5.495
39062SOL     OW19192   9.627   5.152   4.795
39062SOL    HW119193   9.554   5.103   4.752
39062SOL    HW219194   9.667   5.203   4.722
39063SOL     OW19195  10.764   5.226   5.115
39063SOL    HW119196  10.796   5.316   5.124
39063SOL    HW219197  10.684   5.227   5.171
39064SOL     OW19198   9.737   4.117   5.263
39064SOL    HW119199   9.814   4.062   5.241
39064SOL    HW219200   9.661   4.065   5.232
39065SOL     OW19201   9.531   5.435   4.208
39065SOL    HW119202   9.566   5.514   4.253
39065SOL    HW219203   9.587   5.430   4.129
39066SOL     OW19204  10.425   5.068   5.398
39066SOL    HW119205  10.479   5.061   5.478
39066SOL    HW219206  10.377   4.983   5.400
39067SOL     OW19207   9.557   5.153   4.252
39067SOL    HW119208   9.551   5.249   4.262
39067SOL    HW219209   9.486   5.121   4.311
39068SOL     OW19210   9.582   4.811   4.630
39068SOL    HW119211   9.569   4.738   4.692
39068SOL    HW219212   9.523   4.879   4.668
39069SOL     OW19213   9.922   5.506   5.178
39069SOL    HW119214   9.829   5.482   5.200
39069SOL    HW219215   9.917   5.604   5.173
39070SOL     OW19216   9.911   4.702   3.840
39070SOL    HW119217   9.947   4.763   3.773
39070SOL    HW219218   9.938   4.747   3.922
39071SOL     OW19219  10.918   3.825   5.219
39071SOL    HW119220  10.923   3.895   5.154
39071SOL    HW219221  10.909   3.872   5.303
39072SOL     OW19222   9.434   4.368   4.288
39072SOL    HW119223   9.398   4.279   4.305
39072SOL    HW219224   9.421   4.413   4.374
39073SOL     OW19225   9.373   5.314   3.841
39073SOL    HW119226   9.353   5.222   3.865
39073SOL    HW219227   9.334   5.362   3.916
39074SOL     OW19228  10.991   4.688   4.312
39074SOL    HW119229  11.059   4.639   4.360
39074SOL    HW219230  11.040   4.723   4.236
39075SOL     OW19231   9.426   4.461   5.306
39075SOL    HW119232   9.511   4.504   5.326
39075SOL    HW219233   9.365   4.535   5.319
39076SOL     OW19234   9.915   5.131   4.489
39076SOL    HW119235   9.873   5.043   4.502
39076SOL    HW219236   9.908   5.139   4.393
39077SOL     OW19237  10.599   4.959   5.155
39077SOL    HW119238  10.617   4.885   5.095
39077SOL    HW219239  10.669   4.948   5.224
39078SOL     OW19240  10.142   3.725   4.231
39078SOL    HW119241  10.169   3.818   4.212
39078SOL    HW219242  10.045   3.735   4.237
39079SOL     OW19243   9.488   4.704   4.978
39079SOL    HW119244   9.574   4.667   4.955
39079SOL    HW219245   9.425   4.643   4.936
39080SOL     OW19246  10.827   4.649   3.890
39080SOL    HW119247  10.761   4.628   3.960
39080SOL    HW219248  10.899   4.689   3.941
39081SOL     OW19249  10.488   5.532   5.328
39081SOL    HW119250  10.498   5.602   5.261
39081SOL    HW219251  10.513   5.452   5.278
39082SOL     OW19252   9.647   3.960   5.537
39082SOL    HW119253   9.694   4.040   5.513
39082SOL    HW219254   9.566   3.996   5.578
39083SOL     OW19255  10.757   5.150   4.676
39083SOL    HW119256  10.700   5.169   4.754
39083SOL    HW219257  10.738   5.056   4.658
39084SOL     OW19258  10.998   5.442   4.298
39084SOL    HW119259  10.951   5.400   4.226
39084SOL    HW219260  10.974   5.384   4.373
39085SOL     OW19261   9.891   4.439   3.987
39085SOL    HW119262   9.895   4.528   3.948
39085SOL    HW219263   9.812   4.444   4.043
39086SOL     OW19264  10.567   4.081   4.645
39086SOL    HW119265  10.479   4.043   4.662
39086SOL    HW219266  10.622   4.032   4.709
39087SOL     OW19267  10.864   5.370   4.015
39087SOL    HW119268  10.954   5.402   4.020
39087SOL    HW219269  10.845   5.382   3.919
39088SOL     OW19270  10.104   4.342   5.189
39088SOL    HW119271  10.083   4.303   5.278
39088SOL    HW219272  10.050   4.286   5.130
39089SOL     OW19273  10.701   4.204   5.402
39089SOL    HW119274  10.704   4.261   5.481
39089SOL    HW219275  10.751   4.126   5.431
39090SOL     OW19276  10.252   4.617   5.302
39090SOL    HW119277  10.294   4.534   5.268
39090SOL    HW219278  10.208   4.649   5.222
39091SOL     OW19279  10.318   4.121   4.976
39091SOL    HW119280  10.233   4.142   5.017
39091SOL    HW219281  10.292   4.086   4.890
39092SOL     OW19282  10.355   4.405   4.145
39092SOL    HW119283  10.360   4.416   4.242
39092SOL    HW219284  10.268   4.360   4.135
39093SOL     OW19285   9.413   4.534   4.506
39093SOL    HW119286   9.473   4.545   4.582
39093SOL    HW219287   9.354   4.610   4.516
39094SOL     OW19288   9.422   5.567   5.286
39094SOL    HW119289   9.436   5.555   5.383
39094SOL    HW219290   9.329   5.544   5.277
39095SOL     OW19291  10.192   4.078   3.946
39095SOL    HW119292  10.250   4.120   3.881
39095SOL    HW219293  10.160   4.002   3.897
39096SOL     OW19294  11.018   4.312   5.560
39096SOL    HW119295  10.984   4.387   5.507
39096SOL    HW219296  11.060   4.258   5.491
39097SOL     OW19297  10.677   4.878   4.306
39097SOL    HW119298  10.739   4.886   4.233
39097SOL    HW219299  10.610   4.944   4.283
39098SOL     OW19300   9.855   3.920   4.622
39098SOL    HW119301   9.864   3.940   4.717
39098SOL    HW219302   9.852   4.008   4.583
39099SOL     OW19303  10.325   5.179   4.216
39099SOL    HW119304  10.285   5.238   4.150
39099SOL    HW219305  10.298   5.220   4.299
39100SOL     OW19306   9.650   5.528   4.573
39100SOL    HW119307   9.690   5.441   4.592
39100SOL    HW219308   9.722   5.589   4.593
39101SOL     OW19309  11.082   4.742   4.617
39101SOL    HW119310  11.040   4.792   4.546
39101SOL    HW219311  11.023   4.754   4.693
39102SOL     OW19312  10.518   5.268   5.219
39102SOL    HW119313  10.499   5.199   5.285
39102SOL    HW219314  10.477   5.228   5.141
39103SOL     OW19315   9.624   4.672   3.977
39103SOL    HW119316   9.692   4.704   3.917
39103SOL    HW219317   9.595   4.590   3.933
39104SOL     OW19318  10.774   4.482   4.444
39104SOL    HW119319  10.767   4.433   4.527
39104SOL    HW219320  10.859   4.528   4.453
39105SOL     OW19321   9.776   4.994   5.442
39105SOL    HW119322   9.726   5.001   5.357
39105SOL    HW219323   9.701   4.998   5.504
39106SOL     OW19324  10.420   5.484   3.965
39106SOL    HW119325  10.346   5.437   4.007
39106SOL    HW219326  10.430   5.438   3.880
39107SOL     OW19327   9.473   4.014   5.222
39107SOL    HW119328   9.396   4.067   5.248
39107SOL    HW219329   9.455   3.929   5.266
39108SOL     OW19330   9.761   5.451   4.043
39108SOL    HW119331   9.811   5.502   4.109
39108SOL    HW219332   9.831   5.415   3.986
39109SOL     OW19333  10.728   3.858   4.177
39109SOL    HW119334  10.714   3.815   4.090
39109SOL    HW219335  10.823   3.842   4.193
39110SOL     OW19336   9.564   5.513   4.955
39110SOL    HW119337   9.610   5.437   4.993
39110SOL    HW219338   9.535   5.478   4.869
39111SOL     OW19339  10.284   5.428   4.602
39111SOL    HW119340  10.365   5.375   4.607
39111SOL    HW219341  10.230   5.378   4.538
39112SOL     OW19342   9.691   4.406   4.188
39112SOL    HW119343   9.722   4.316   4.208
39112SOL    HW219344   9.597   4.399   4.213
39113SOL     OW19345  10.832   3.957   5.456
39113SOL    HW119346  10.824   3.967   5.554
39113SOL    HW219347  10.776   3.880   5.441
39114SOL     OW19348   9.952   3.849   3.813
39114SOL    HW119349  10.012   3.783   3.848
39114SOL    HW219350   9.899   3.796   3.749
39115SOL     OW19351  10.069   3.971   5.463
39115SOL    HW119352  10.150   3.919   5.475
39115SOL    HW219353  10.018   3.953   5.544
39116SOL     OW19354  10.204   5.263   4.916
39116SOL    HW119355  10.188   5.241   4.823
39116SOL    HW219356  10.258   5.188   4.946
39117SOL     OW19357  10.629   4.325   5.158
39117SOL    HW119358  10.665   4.289   5.241
39117SOL    HW219359  10.675   4.410   5.149
39118SOL     OW19360  10.137   5.124   4.656
39118SOL    HW119361  10.222   5.113   4.608
39118SOL    HW219362  10.072   5.130   4.585
39119SOL     OW19363  10.235   4.232   4.636
39119SOL    HW119364  10.218   4.225   4.539
39119SOL    HW219365  10.261   4.141   4.655
39120SOL     OW19366   9.876   3.772   4.224
39120SOL    HW119367   9.798   3.779   4.282
39120SOL    HW219368   9.859   3.845   4.161
39121SOL     OW19369  10.743   4.896   3.754
39121SOL    HW119370  10.740   4.822   3.816
39121SOL    HW219371  10.664   4.946   3.779
39122SOL     OW19372   9.585   3.768   3.915
39122SOL    HW119373   9.640   3.838   3.877
39122SOL    HW219374   9.652   3.705   3.947
39123SOL     OW19375  10.237   3.979   4.208
39123SOL    HW119376  10.223   4.025   4.124
39123SOL    HW219377  10.333   3.991   4.220
39124SOL     OW19378  10.371   4.404   5.195
39124SOL    HW119379  10.314   4.327   5.198
39124SOL    HW219380  10.461   4.367   5.191
39125SOL     OW19381  10.544   5.313   4.521
39125SOL    HW119382  10.554   5.375   4.447
39125SOL    HW219383  10.631   5.318   4.563
39126SOL     OW19384   9.779   4.902   4.470
39126SOL    HW119385   9.708   4.865   4.526
39126SOL    HW219386   9.748   4.875   4.380
39127SOL     OW19387  10.579   5.537   4.323
39127SOL    HW119388  10.624   5.601   4.264
39127SOL    HW219389  10.543   5.595   4.392
39128SOL     OW19390  10.351   4.272   3.730
39128SOL    HW119391  10.294   4.348   3.709
39128SOL    HW219392  10.404   4.304   3.804
39129SOL     OW19393   9.353   4.288   5.118
39129SOL    HW119394   9.447   4.278   5.097
39129SOL    HW219395   9.357   4.361   5.183
39130SOL     OW19396   9.870   3.968   4.899
39130SOL    HW119397   9.916   3.897   4.946
39130SOL    HW219398   9.777   3.953   4.926
39131SOL     OW19399  10.195   4.183   4.382
39131SOL    HW119400  10.147   4.230   4.313
39131SOL    HW219401  10.207   4.095   4.341
39132SOL     OW19402  10.289   3.812   4.490
39132SOL    HW119403  10.264   3.789   4.399
39132SOL    HW219404  10.291   3.725   4.534
39133SOL     OW19405  10.743   4.885   4.609
39133SOL    HW119406  10.700   4.803   4.638
39133SOL    HW219407  10.720   4.888   4.515
39134SOL     OW19408  10.771   4.320   4.725
39134SOL    HW119409  10.715   4.241   4.723
39134SOL    HW219410  10.860   4.285   4.743
39135SOL     OW19411   0.010   4.543   4.096
39135SOL    HW119412   0.062   4.503   4.168
39135SOL    HW219413   0.012   4.470   4.031
39136SOL     OW19414   9.801   5.143   3.838
39136SOL    HW119415   9.720   5.129   3.890
39136SOL    HW219416   9.788   5.083   3.763
39137SOL     OW19417  10.715   4.322   3.803
39137SOL    HW119418  10.651   4.284   3.867
39137SOL    HW219419  10.799   4.296   3.844
39138SOL     OW19420   9.821   3.951   4.036
39138SOL    HW119421   9.869   3.926   3.955
39138SOL    HW219422   9.788   4.040   4.010
39139SOL     OW19423  11.037   4.961   5.320
39139SOL    HW119424   0.027   4.928   5.315
39139SOL    HW219425  11.049   5.055   5.336
39140SOL     OW19426  10.375   5.078   5.060
39140SOL    HW119427  10.294   5.041   5.099
39140SOL    HW219428  10.444   5.028   5.109
39141SOL     OW19429  10.932   5.345   5.362
39141SOL    HW119430  10.945   5.385   5.276
39141SOL    HW219431  11.015   5.300   5.377
39142SOL     OW19432  10.450   4.931   4.816
39142SOL    HW119433  10.375   4.956   4.870
39142SOL    HW219434  10.433   4.978   4.733
39143SOL     OW19435  10.922   4.819   4.827
39143SOL    HW119436  10.912   4.882   4.900
39143SOL    HW219437  10.864   4.858   4.761
39144SOL     OW19438  10.230   3.817   5.128
39144SOL    HW119439  10.256   3.795   5.037
39144SOL    HW219440  10.310   3.863   5.161
39145SOL     OW19441  10.303   4.838   5.466
39145SOL    HW119442  10.210   4.859   5.484
39145SOL    HW219443  10.295   4.760   5.407
39146SOL     OW19444  10.020   4.788   4.077
39146SOL    HW119445  10.012   4.770   4.172
39146SOL    HW219446  10.093   4.729   4.050
39147SOL     OW19447   9.729   4.527   4.985
39147SOL    HW119448   9.801   4.526   5.050
39147SOL    HW219449   9.687   4.441   4.999
39148SOL     OW19450  10.595   4.107   5.004
39148SOL    HW119451  10.620   4.188   5.053
39148SOL    HW219452  10.501   4.122   4.985
39149SOL     OW19453   9.382   5.296   5.076
39149SOL    HW119454   9.365   5.385   5.043
39149SOL    HW219455   9.479   5.287   5.069
39150SOL     OW19456   9.681   4.833   4.231
39150SOL    HW119457   9.688   4.899   4.161
39150SOL    HW219458   9.665   4.752   4.181
39151SOL     OW19459   9.853   4.263   4.578
39151SOL    HW119460   9.885   4.320   4.504
39151SOL    HW219461   9.916   4.284   4.648
39152SOL     OW19462  10.555   5.101   4.098
39152SOL    HW119463  10.606   5.169   4.145
39152SOL    HW219464  10.467   5.113   4.140
39153SOL     OW19465  10.608   5.191   4.896
39153SOL    HW119466  10.675   5.188   4.967
39153SOL    HW219467  10.549   5.118   4.919
39154SOL     OW19468  10.884   4.356   4.195
39154SOL    HW119469  10.833   4.400   4.265
39154SOL    HW219470  10.956   4.418   4.180
39155SOL     OW19471   9.648   5.244   5.039
39155SOL    HW119472   9.632   5.202   4.952
39155SOL    HW219473   9.745   5.256   5.035
39156SOL     OW19474   9.743   4.459   5.350
39156SOL    HW119475   9.796   4.499   5.279
39156SOL    HW219476   9.771   4.366   5.345
39157SOL     OW19477  10.920   4.490   5.395
39157SOL    HW119478  10.833   4.534   5.400
39157SOL    HW219479  10.964   4.547   5.328
39158SOL     OW19480  10.302   3.835   5.464
39158SOL    HW119481  10.354   3.914   5.447
39158SOL    HW219482  10.358   3.766   5.423
39159SOL     OW19483   9.809   3.738   5.478
39159SOL    HW119484   9.764   3.682   5.413
39159SOL    HW219485   9.747   3.813   5.486
39160SOL     OW19486   9.902   4.618   4.775
39160SOL    HW119487   9.922   4.712   4.782
39160SOL    HW219488   9.838   4.603   4.847
39161SOL     OW19489  10.688   4.589   4.756
39161SOL    HW119490  10.601   4.557   4.730
39161SOL    HW219491  10.737   4.505   4.765
39162SOL     OW19492  10.529   4.245   4.005
39162SOL    HW119493  10.526   4.164   4.060
39162SOL    HW219494  10.476   4.306   4.059
39163SOL     OW19495   9.608   3.930   4.967
39163SOL    HW119496   9.558   3.959   5.046
39163SOL    HW219497   9.584   3.835   4.965
39164SOL     OW19498   9.366   5.025   5.004
39164SOL    HW119499   9.373   4.961   5.078
39164SOL    HW219500   9.341   5.108   5.048
39165SOL     OW19501  10.040   4.376   4.777
39165SOL    HW119502  10.112   4.359   4.714
39165SOL    HW219503  10.006   4.465   4.754
39166SOL     OW19504   9.627   3.787   4.335
39166SOL    HW119505   9.591   3.876   4.350
39166SOL    HW219506   9.621   3.748   4.425
39167SOL     OW19507  10.923   4.110   4.065
39167SOL    HW119508  10.958   4.050   4.131
39167SOL    HW219509  10.893   4.186   4.119
39168SOL     OW19510  10.360   4.464   4.690
39168SOL    HW119511  10.348   4.478   4.786
39168SOL    HW219512  10.323   4.373   4.679
39169SOL     OW19513  10.288   5.294   5.436
39169SOL    HW119514  10.294   5.338   5.349
39169SOL    HW219515  10.317   5.203   5.415
39170SOL     OW19516   9.660   4.612   5.547
39170SOL    HW119517   9.747   4.640   5.580
39170SOL    HW219518   9.686   4.547   5.478
39171SOL     OW19519  10.802   3.997   3.850
39171SOL    HW119520  10.752   3.930   3.898
39171SOL    HW219521  10.852   4.040   3.922
39172SOL     OW19522  10.385   5.085   4.574
39172SOL    HW119523  10.392   5.011   4.510
39172SOL    HW219524  10.451   5.150   4.544
39173SOL     OW19525   9.585   4.541   4.726
39173SOL    HW119526   9.671   4.560   4.685
39173SOL    HW219527   9.598   4.449   4.753
39174SOL     OW19528   9.643   4.258   4.733
39174SOL    HW119529   9.605   4.170   4.716
39174SOL    HW219530   9.714   4.263   4.665
39175SOL     OW19531  10.452   4.095   5.405
39175SOL    HW119532  10.409   4.147   5.475
39175SOL    HW219533  10.540   4.136   5.400
39176SOL     OW19534  10.470   3.923   5.196
39176SOL    HW119535  10.466   3.990   5.267
39176SOL    HW219536  10.507   3.975   5.123
39177SOL     OW19537   9.308   5.049   3.926
39177SOL    HW119538   9.214   5.062   3.897
39177SOL    HW219539   9.307   4.956   3.955
39178SOL     OW19540   9.400   5.502   4.667
39178SOL    HW119541   9.365   5.427   4.613
39178SOL    HW219542   9.489   5.513   4.626
39179SOL     OW19543   9.793   5.314   4.646
39179SOL    HW119544   9.862   5.375   4.675
39179SOL    HW219545   9.844   5.250   4.593
39180SOL     OW19546  10.295   4.496   4.948
39180SOL    HW119547  10.337   4.464   5.031
39180SOL    HW219548  10.203   4.474   4.965
39181SOL     OW19549   9.330   4.236   4.830
39181SOL    HW119550   9.410   4.230   4.777
39181SOL    HW219551   9.363   4.266   4.916
39182SOL     OW19552   9.538   4.236   5.441
39182SOL    HW119553   9.585   4.193   5.368
39182SOL    HW219554   9.490   4.307   5.395
39183SOL     OW19555  10.697   4.649   5.385
39183SOL    HW119556  10.713   4.745   5.390
39183SOL    HW219557  10.677   4.637   5.291
39184SOL     OW19558  10.113   4.294   4.105
39184SOL    HW119559  10.119   4.222   4.040
39184SOL    HW219560  10.032   4.341   4.078
39185SOL     OW19561   9.570   5.267   5.444
39185SOL    HW119562   9.537   5.327   5.512
39185SOL    HW219563   9.574   5.182   5.492
39186SOL     OW19564   9.983   4.208   4.990
39186SOL    HW119565   9.943   4.130   4.948
39186SOL    HW219566   9.994   4.270   4.915
39187SOL     OW19567  10.237   5.422   5.200
39187SOL    HW119568  10.235   5.364   5.122
39187SOL    HW219569  10.257   5.509   5.160
39188SOL     OW19570   9.757   4.193   3.930
39188SOL    HW119571   9.818   4.267   3.931
39188SOL    HW219572   9.671   4.239   3.926
39189SOL     OW19573   9.418   4.849   5.196
39189SOL    HW119574   9.429   4.792   5.275
39189SOL    HW219575   9.443   4.788   5.123
39190SOL     OW19576  10.627   4.778   4.947
39190SOL    HW119577  10.649   4.714   4.876
39190SOL    HW219578  10.563   4.836   4.902
39191SOL     OW19579  10.614   4.567   4.031
39191SOL    HW119580  10.600   4.521   4.115
39191SOL    HW219581  10.523   4.582   4.002
39192SOL     OW19582  11.047   5.477   4.856
39192SOL    HW119583   0.018   5.497   4.794
39192SOL    HW219584  11.032   5.381   4.841
39193SOL     OW19585  10.564   5.451   4.831
39193SOL    HW119586  10.649   5.461   4.785
39193SOL    HW219587  10.563   5.356   4.851
39194SOL     OW19588   9.406   4.988   4.748
39194SOL    HW119589   9.384   5.001   4.844
39194SOL    HW219590   9.325   4.947   4.716
39195SOL     OW19591  11.040   3.864   4.262
39195SOL    HW119592  11.096   3.861   4.181
39195SOL    HW219593  11.039   3.772   4.293
39196SOL     OW19594  10.693   5.310   4.220
39196SOL    HW119595  10.747   5.332   4.142
39196SOL    HW219596  10.640   5.391   4.235
39197SOL     OW19597   9.467   5.526   5.549
39197SOL    HW119598   9.424   5.457   5.602
39197SOL    HW219599   9.511   5.577   5.620
39198SOL     OW19600  10.564   4.644   4.384
39198SOL    HW119601  10.641   4.589   4.408
39198SOL    HW219602  10.608   4.721   4.343
39199SOL     OW19603  10.110   4.980   5.138
39199SOL    HW119604  10.088   5.028   5.220
39199SOL    HW219605  10.029   4.996   5.086
39200SOL     OW19606   9.975   5.341   3.889
39200SOL    HW119607   9.989   5.360   3.794
39200SOL    HW219608   9.919   5.260   3.881
39201SOL     OW19609   9.557   4.045   4.424
39201SOL    HW119610   9.469   4.086   4.410
39201SOL    HW219611   9.566   4.047   4.520
39202SOL     OW19612  10.510   5.350   3.737
39202SOL    HW119613  10.510   5.256   3.762
39202SOL    HW219614  10.444   5.351   3.664
39203SOL     OW19615  10.133   4.716   5.083
39203SOL    HW119616  10.182   4.715   5.001
39203SOL    HW219617  10.131   4.811   5.106
39204SOL     OW19618  10.221   4.635   3.998
39204SOL    HW119619  10.285   4.648   3.927
39204SOL    HW219620  10.249   4.551   4.037
39205SOL     OW19621  10.798   5.417   3.757
39205SOL    HW119622  10.714   5.368   3.749
39205SOL    HW219623  10.848   5.384   3.680
39206SOL     OW19624   9.635   5.004   5.217
39206SOL    HW119625   9.627   5.069   5.146
39206SOL    HW219626   9.556   4.948   5.204
39207SOL     OW19627  10.892   5.024   5.005
39207SOL    HW119628  10.960   5.007   5.070
39207SOL    HW219629  10.839   5.094   5.048
39208SOL     OW19630  10.372   4.848   4.446
39208SOL    HW119631  10.292   4.801   4.473
39208SOL    HW219632  10.432   4.774   4.428
39209SOL     OW19633  10.334   3.952   4.713
39209SOL    HW119634  10.312   3.908   4.627
39209SOL    HW219635  10.345   3.875   4.772
39210SOL     OW19636   9.934   5.214   4.222
39210SOL    HW119637   9.983   5.173   4.148
39210SOL    HW219638   9.850   5.240   4.180
39211SOL     OW19639   9.564   5.095   3.993
39211SOL    HW119640   9.468   5.083   3.981
39211SOL    HW219641   9.568   5.120   4.088
39212SOL     OW19642   9.444   4.719   5.428
39212SOL    HW119643   9.369   4.710   5.491
39212SOL    HW219644   9.520   4.689   5.481
39213SOL     OW19645   9.983   3.909   5.209
39213SOL    HW119646  10.070   3.874   5.182
39213SOL    HW219647  10.001   3.941   5.299
39214SOL     OW19648   9.407   4.070   3.748
39214SOL    HW119649   9.323   4.057   3.701
39214SOL    HW219650   9.444   4.146   3.699
39215SOL     OW19651  10.719   4.579   5.115
39215SOL    HW119652  10.674   4.640   5.053
39215SOL    HW219653  10.812   4.601   5.100
39216SOL     OW19654   9.371   3.895   4.034
39216SOL    HW119655   9.362   3.976   3.981
39216SOL    HW219656   9.454   3.857   3.999
39217SOL     OW19657  10.500   5.053   3.825
39217SOL    HW119658  10.403   5.059   3.815
39217SOL    HW219659  10.512   5.068   3.921
39218SOL     OW19660   9.929   4.535   5.161
39218SOL    HW119661   9.984   4.612   5.139
39218SOL    HW219662   9.998   4.468   5.175
39219SOL     OW19663  10.791   5.479   4.684
39219SOL    HW119664  10.822   5.513   4.600
39219SOL    HW219665  10.871   5.486   4.738
39220SOL     OW19666  10.042   4.249   5.424
39220SOL    HW119667  10.076   4.311   5.490
39220SOL    HW219668  10.060   4.161   5.461
39221SOL     OW19669  10.778   4.917   5.347
39221SOL    HW119670  10.765   4.922   5.445
39221SOL    HW219671  10.875   4.927   5.341
39222SOL     OW19672   9.678   5.456   5.287
39222SOL    HW119673   9.593   5.502   5.269
39222SOL    HW219674   9.644   5.372   5.325
39223SOL     OW19675  11.010   4.589   4.949
39223SOL    HW119676  11.005   4.514   4.887
39223SOL    HW219677  10.968   4.662   4.899
39224SOL     OW19678  10.505   4.040   4.204
39224SOL    HW119679  10.575   3.976   4.185
39224SOL    HW219680  10.547   4.093   4.275
39225SOL     OW19681   9.906   4.466   4.376
39225SOL    HW119682   9.940   4.554   4.358
39225SOL    HW219683   9.827   4.461   4.321
39226SOL     OW19684  11.060   4.104   5.359
39226SOL    HW119685  11.024   4.158   5.288
39226SOL    HW219686  10.982   4.058   5.395
39227SOL     OW19687  11.022   4.647   5.211
39227SOL    HW119688  11.030   4.743   5.208
39227SOL    HW219689  11.031   4.621   5.117
39228SOL     OW19690  10.234   5.087   3.779
39228SOL    HW119691  10.159   5.080   3.840
39228SOL    HW219692  10.204   5.156   3.717
39229SOL     OW19693   9.977   5.523   4.679
39229SOL    HW119694   9.960   5.614   4.648
39229SOL    HW219695  10.067   5.505   4.648
39230SOL     OW19696  10.196   4.664   4.563
39230SOL    HW119697  10.250   4.596   4.608
39230SOL    HW219698  10.167   4.721   4.636
39231SOL     OW19699  10.431   4.683   3.798
39231SOL    HW119700  10.406   4.773   3.772
39231SOL    HW219701  10.397   4.634   3.722
39232SOL     OW19702   0.057   5.271   4.565
39232SOL    HW119703  11.074   5.260   4.520
39232SOL    HW219704   0.064   5.189   4.616
39233SOL     OW19705   9.554   5.041   5.592
39233SOL    HW119706   9.480   4.984   5.570
39233SOL    HW219707   9.539   5.055   5.687
39234SOL     OW19708   9.408   4.968   4.387
39234SOL    HW119709   9.374   4.895   4.440
39234SOL    HW219710   9.490   4.931   4.352
39235SOL     OW19711   9.986   5.126   5.339
39235SOL    HW119712   9.915   5.064   5.364
39235SOL    HW219713   9.960   5.206   5.386
39236SOL     OW19714   0.008   3.900   4.911
39236SOL    HW119715   0.021   3.821   4.963
39236SOL    HW219716  11.077   3.865   4.827
39237SOL     OW19717   9.752   4.147   4.254
39237SOL    HW119718   9.785   4.070   4.205
39237SOL    HW219719   9.694   4.108   4.321
39238SOL     OW19720  10.984   5.221   4.824
39238SOL    HW119721  10.903   5.208   4.773
39238SOL    HW219722  10.987   5.142   4.879
39239SOL     OW19723   9.635   4.250   5.011
39239SOL    HW119724   9.708   4.215   5.063
39239SOL    HW219725   9.659   4.225   4.920
39240SOL     OW19726  10.128   5.321   4.407
39240SOL    HW119727  10.124   5.374   4.326
39240SOL    HW219728  10.043   5.275   4.405
39241SOL     OW19729  10.729   3.958   4.819
39241SOL    HW119730  10.759   3.878   4.865
39241SOL    HW219731  10.694   4.010   4.894
39242SOL     OW19732  10.330   3.721   4.880
39242SOL    HW119733  10.276   3.645   4.856
39242SOL    HW219734  10.421   3.683   4.873
39243SOL     OW19735  10.092   5.064   4.041
39243SOL    HW119736  10.051   4.976   4.044
39243SOL    HW219737  10.174   5.050   4.090
39244SOL     OW19738   9.913   5.280   5.000
39244SOL    HW119739   9.921   5.362   5.052
39244SOL    HW219740  10.002   5.275   4.962
39245SOL     OW19741  10.664   3.757   3.938
39245SOL    HW119742  10.670   3.721   3.849
39245SOL    HW219743  10.576   3.725   3.964
39246SOL     OW19744  10.631   4.193   4.404
39246SOL    HW119745  10.564   4.264   4.402
39246SOL    HW219746  10.614   4.152   4.491
39247SOL     OW19747  10.909   3.896   4.611
39247SOL    HW119748  10.835   3.912   4.673
39247SOL    HW219749  10.902   3.971   4.552
39248SOL     OW19750   9.347   4.791   4.032
39248SOL    HW119751   9.440   4.778   4.009
39248SOL    HW219752   9.321   4.699   4.054
39249SOL     OW19753  10.189   5.373   4.066
39249SOL    HW119754  10.111   5.352   4.011
39249SOL    HW219755  10.162   5.454   4.113
39250SOL     OW19756   9.538   4.347   5.723
39250SOL    HW119757   9.443   4.357   5.737
39250SOL    HW219758   9.548   4.334   5.627
39251SOL     OW19759   9.524   4.000   6.542
39251SOL    HW119760   9.548   3.981   6.635
39251SOL    HW219761   9.434   3.960   6.542
39252SOL     OW19762   9.366   4.098   6.237
39252SOL    HW119763   9.283   4.125   6.279
39252SOL    HW219764   9.334   4.026   6.180
39253SOL     OW19765   9.881   5.027   6.780
39253SOL    HW119766   9.795   5.033   6.737
39253SOL    HW219767   9.896   5.119   6.810
39254SOL     OW19768  10.885   5.231   6.290
39254SOL    HW119769  10.849   5.207   6.377
39254SOL    HW219770  10.810   5.219   6.231
39255SOL     OW19771  10.433   4.412   6.279
39255SOL    HW119772  10.470   4.500   6.260
39255SOL    HW219773  10.412   4.422   6.374
39256SOL     OW19774  11.081   4.323   5.820
39256SOL    HW119775  11.053   4.324   5.726
39256SOL    HW219776  11.037   4.242   5.853
39257SOL     OW19777  10.040   4.882   6.620
39257SOL    HW119778   9.985   4.932   6.684
39257SOL    HW219779  10.083   4.956   6.574
39258SOL     OW19780  10.181   4.484   7.388
39258SOL    HW119781  10.156   4.543   7.459
39258SOL    HW219782  10.194   4.545   7.312
39259SOL     OW19783  10.001   4.751   6.249
39259SOL    HW119784  10.061   4.722   6.320
39259SOL    HW219785   9.933   4.801   6.299
39260SOL     OW19786  10.023   4.885   7.389
39260SOL    HW119787  10.069   4.969   7.409
39260SOL    HW219788   9.941   4.917   7.347
39261SOL     OW19789   9.625   5.159   6.664
39261SOL    HW119790   9.556   5.112   6.614
39261SOL    HW219791   9.676   5.208   6.597
39262SOL     OW19792  10.765   5.231   6.981
39262SOL    HW119793  10.790   5.324   6.981
39262SOL    HW219794  10.680   5.234   7.029
39263SOL     OW19795   9.744   4.112   7.109
39263SOL    HW119796   9.816   4.051   7.091
39263SOL    HW219797   9.664   4.059   7.092
39264SOL     OW19798   9.530   5.441   6.059
39264SOL    HW119799   9.555   5.515   6.118
39264SOL    HW219800   9.597   5.447   5.989
39265SOL     OW19801  10.433   5.059   7.243
39265SOL    HW119802  10.480   5.066   7.327
39265SOL    HW219803  10.385   4.975   7.254
39266SOL     OW19804   9.553   5.158   6.116
39266SOL    HW119805   9.553   5.254   6.127
39266SOL    HW219806   9.490   5.130   6.184
39267SOL     OW19807   9.580   4.810   6.494
39267SOL    HW119808   9.560   4.734   6.551
39267SOL    HW219809   9.530   4.880   6.539
39268SOL     OW19810   9.883   5.538   6.979
39268SOL    HW119811   9.828   5.500   7.050
39268SOL    HW219812   9.925   5.615   7.022
39269SOL     OW19813   9.895   4.715   5.706
39269SOL    HW119814   9.945   4.762   5.637
39269SOL    HW219815   9.932   4.755   5.787
39270SOL     OW19816  10.933   3.811   7.086
39270SOL    HW119817  10.956   3.873   7.016
39270SOL    HW219818  10.915   3.869   7.162
39271SOL     OW19819   9.431   4.377   6.149
39271SOL    HW119820   9.394   4.289   6.167
39271SOL    HW219821   9.421   4.423   6.235
39272SOL     OW19822   9.382   5.322   5.707
39272SOL    HW119823   9.362   5.230   5.729
39272SOL    HW219824   9.339   5.370   5.780
39273SOL     OW19825  10.993   4.688   6.174
39273SOL    HW119826  11.060   4.634   6.218
39273SOL    HW219827  11.040   4.720   6.096
39274SOL     OW19828   9.438   4.463   7.165
39274SOL    HW119829   9.529   4.495   7.168
39274SOL    HW219830   9.392   4.542   7.198
39275SOL     OW19831   9.903   5.133   6.348
39275SOL    HW119832   9.864   5.044   6.361
39275SOL    HW219833   9.897   5.141   6.251
39276SOL     OW19834  10.602   4.956   7.017
39276SOL    HW119835  10.623   4.881   6.958
39276SOL    HW219836  10.668   4.949   7.088
39277SOL     OW19837  10.147   3.729   6.085
39277SOL    HW119838  10.178   3.821   6.076
39277SOL    HW219839  10.050   3.741   6.089
39278SOL     OW19840   9.489   4.702   6.843
39278SOL    HW119841   9.581   4.677   6.822
39278SOL    HW219842   9.437   4.632   6.802
39279SOL     OW19843  10.844   4.722   5.789
39279SOL    HW119844  10.772   4.673   5.832
39279SOL    HW219845  10.915   4.715   5.853
39280SOL     OW19846  10.511   5.528   7.197
39280SOL    HW119847  10.477   5.584   7.126
39280SOL    HW219848  10.517   5.442   7.152
39281SOL     OW19849   9.677   3.964   7.390
39281SOL    HW119850   9.707   4.054   7.372
39281SOL    HW219851   9.586   3.981   7.419
39282SOL     OW19852  10.752   5.145   6.537
39282SOL    HW119853  10.691   5.160   6.612
39282SOL    HW219854  10.734   5.052   6.514
39283SOL     OW19855  10.989   5.444   6.164
39283SOL    HW119856  10.946   5.400   6.089
39283SOL    HW219857  10.973   5.379   6.235
39284SOL     OW19858   9.908   4.436   5.845
39284SOL    HW119859   9.921   4.520   5.799
39284SOL    HW219860   9.836   4.458   5.906
39285SOL     OW19861  10.569   4.090   6.515
39285SOL    HW119862  10.485   4.042   6.525
39285SOL    HW219863  10.627   4.040   6.575
39286SOL     OW19864  10.856   5.366   5.874
39286SOL    HW119865  10.930   5.426   5.878
39286SOL    HW219866  10.847   5.355   5.777
39287SOL     OW19867  10.090   4.333   7.068
39287SOL    HW119868  10.074   4.285   7.151
39287SOL    HW219869  10.041   4.278   7.002
39288SOL     OW19870  10.699   4.201   7.264
39288SOL    HW119871  10.704   4.266   7.337
39288SOL    HW219872  10.760   4.132   7.293
39289SOL     OW19873  10.243   4.620   7.165
39289SOL    HW119874  10.286   4.538   7.131
39289SOL    HW219875  10.210   4.659   7.081
39290SOL     OW19876  10.318   4.128   6.830
39290SOL    HW119877  10.230   4.144   6.865
39290SOL    HW219878  10.301   4.087   6.744
39291SOL     OW19879  10.346   4.401   6.003
39291SOL    HW119880  10.363   4.414   6.099
39291SOL    HW219881  10.259   4.357   6.003
39292SOL     OW19882   9.415   4.524   6.368
39292SOL    HW119883   9.483   4.533   6.437
39292SOL    HW219884   9.356   4.599   6.389
39293SOL     OW19885   9.424   5.568   7.150
39293SOL    HW119886   9.437   5.551   7.246
39293SOL    HW219887   9.328   5.558   7.140
39294SOL     OW19888  10.199   4.096   5.790
39294SOL    HW119889  10.231   4.159   5.724
39294SOL    HW219890  10.248   4.017   5.763
39295SOL     OW19891  11.026   4.309   7.418
39295SOL    HW119892  10.989   4.383   7.365
39295SOL    HW219893  11.051   4.248   7.346
39296SOL     OW19894  10.676   4.878   6.171
39296SOL    HW119895  10.738   4.871   6.097
39296SOL    HW219896  10.614   4.943   6.137
39297SOL     OW19897   9.857   3.952   6.489
39297SOL    HW119898   9.863   3.944   6.587
39297SOL    HW219899   9.897   4.038   6.473
39298SOL     OW19900  10.337   5.178   6.076
39298SOL    HW119901  10.300   5.245   6.015
39298SOL    HW219902  10.319   5.218   6.162
39299SOL     OW19903   9.654   5.536   6.440
39299SOL    HW119904   9.700   5.452   6.461
39299SOL    HW219905   9.721   5.602   6.464
39300SOL     OW19906  11.088   4.753   6.466
39300SOL    HW119907  11.036   4.785   6.390
39300SOL    HW219908  11.024   4.752   6.540
39301SOL     OW19909  10.523   5.276   7.081
39301SOL    HW119910  10.502   5.192   7.128
39301SOL    HW219911  10.436   5.304   7.049
39302SOL     OW19912   9.615   4.677   5.845
39302SOL    HW119913   9.688   4.709   5.791
39302SOL    HW219914   9.587   4.598   5.795
39303SOL     OW19915  10.768   4.484   6.318
39303SOL    HW119916  10.770   4.434   6.401
39303SOL    HW219917  10.855   4.527   6.316
39304SOL     OW19918   9.772   4.994   7.305
39304SOL    HW119919   9.729   5.003   7.217
39304SOL    HW219920   9.694   4.993   7.363
39305SOL     OW19921  10.426   5.498   5.830
39305SOL    HW119922  10.360   5.445   5.877
39305SOL    HW219923  10.446   5.447   5.750
39306SOL     OW19924   9.478   4.016   7.092
39306SOL    HW119925   9.398   4.065   7.118
39306SOL    HW219926   9.456   3.926   7.122
39307SOL     OW19927   9.764   5.466   5.901
39307SOL    HW119928   9.810   5.511   5.974
39307SOL    HW219929   9.837   5.425   5.852
39308SOL     OW19930  10.717   3.842   6.040
39308SOL    HW119931  10.712   3.806   5.949
39308SOL    HW219932  10.811   3.839   6.059
39309SOL     OW19933   9.548   5.518   6.821
39309SOL    HW119934   9.612   5.464   6.869
39309SOL    HW219935   9.553   5.483   6.731
39310SOL     OW19936  10.277   5.436   6.459
39310SOL    HW119937  10.338   5.376   6.504
39310SOL    HW219938  10.230   5.377   6.397
39311SOL     OW19939   9.693   4.414   6.050
39311SOL    HW119940   9.696   4.323   6.019
39311SOL    HW219941   9.598   4.423   6.072
39312SOL     OW19942  10.838   3.961   7.319
39312SOL    HW119943  10.829   3.973   7.416
39312SOL    HW219944  10.783   3.883   7.305
39313SOL     OW19945   9.935   3.852   5.687
39313SOL    HW119946  10.012   3.799   5.711
39313SOL    HW219947   9.891   3.796   5.620
39314SOL     OW19948  10.060   3.948   7.364
39314SOL    HW119949  10.153   3.921   7.349
39314SOL    HW219950  10.067   4.046   7.360
39315SOL     OW19951  10.167   5.248   6.760
39315SOL    HW119952  10.170   5.209   6.671
39315SOL    HW219953  10.236   5.201   6.808
39316SOL     OW19954  10.616   4.323   7.022
39316SOL    HW119955  10.665   4.282   7.096
39316SOL    HW219956  10.663   4.408   7.010
39317SOL     OW19957  10.128   5.120   6.514
39317SOL    HW119958  10.214   5.111   6.468
39317SOL    HW219959  10.064   5.126   6.442
39318SOL     OW19960  10.232   4.236   6.498
39318SOL    HW119961  10.214   4.235   6.401
39318SOL    HW219962  10.269   4.148   6.511
39319SOL     OW19963   9.873   3.779   6.088
39319SOL    HW119964   9.794   3.785   6.144
39319SOL    HW219965   9.861   3.857   6.029
39320SOL     OW19966  10.752   4.904   5.608
39320SOL    HW119967  10.780   4.834   5.670
39320SOL    HW219968  10.674   4.940   5.651
39321SOL     OW19969   9.586   3.775   5.789
39321SOL    HW119970   9.639   3.839   5.739
39321SOL    HW219971   9.655   3.715   5.822
39322SOL     OW19972  10.234   3.984   6.076
39322SOL    HW119973  10.221   4.029   5.991
39322SOL    HW219974  10.330   3.996   6.089
39323SOL     OW19975  10.363   4.405   7.061
39323SOL    HW119976  10.313   4.323   7.051
39323SOL    HW219977  10.456   4.375   7.055
39324SOL     OW19978  10.552   5.290   6.373
39324SOL    HW119979  10.547   5.366   6.314
39324SOL    HW219980  10.633   5.307   6.422
39325SOL     OW19981   9.786   4.892   6.331
39325SOL    HW119982   9.714   4.859   6.387
39325SOL    HW219983   9.749   4.874   6.241
39326SOL     OW19984  10.565   5.544   6.175
39326SOL    HW119985  10.620   5.608   6.126
39326SOL    HW219986  10.530   5.597   6.248
39327SOL     OW19987  10.342   4.255   5.611
39327SOL    HW119988  10.296   4.336   5.579
39327SOL    HW219989  10.414   4.292   5.664
39328SOL     OW19990   9.363   4.280   6.985
39328SOL    HW119991   9.457   4.260   6.969
39328SOL    HW219992   9.369   4.359   7.043
39329SOL     OW19993   9.871   3.958   6.763
39329SOL    HW119994   9.912   3.885   6.812
39329SOL    HW219995   9.777   3.948   6.788
39330SOL     OW19996  10.184   4.195   6.245
39330SOL    HW119997  10.158   4.241   6.164
39330SOL    HW219998  10.200   4.105   6.212
39331SOL     OW19999  10.306   3.797   6.350
39331SOL    HW120000  10.293   3.771   6.258
39331SOL    HW220001  10.301   3.712   6.397
39332SOL     OW20002  10.735   4.886   6.462
39332SOL    HW120003  10.687   4.808   6.492
39332SOL    HW220004  10.717   4.886   6.367
39333SOL     OW20005  10.777   4.317   6.575
39333SOL    HW120006  10.713   4.244   6.586
39333SOL    HW220007  10.861   4.277   6.602
39334SOL     OW20008   0.025   4.550   5.959
39334SOL    HW120009   0.067   4.502   6.033
39334SOL    HW220010   0.021   4.478   5.894
39335SOL     OW20011   9.808   5.144   5.713
39335SOL    HW120012   9.726   5.136   5.766
39335SOL    HW220013   9.793   5.079   5.644
39336SOL     OW20014  10.709   4.315   5.664
39336SOL    HW120015  10.653   4.284   5.738
39336SOL    HW220016  10.798   4.302   5.699
39337SOL     OW20017   9.825   3.965   5.908
39337SOL    HW120018   9.867   3.926   5.828
39337SOL    HW220019   9.799   4.052   5.872
39338SOL     OW20020  11.034   4.948   7.180
39338SOL    HW120021   0.025   4.918   7.172
39338SOL    HW220022  11.043   5.044   7.168
39339SOL     OW20023  10.376   5.043   6.901
39339SOL    HW120024  10.298   5.034   6.957
39339SOL    HW220025  10.447   5.013   6.962
39340SOL     OW20026  10.933   5.349   7.231
39340SOL    HW120027  10.939   5.394   7.147
39340SOL    HW220028  11.012   5.293   7.231
39341SOL     OW20029  10.450   4.917   6.671
39341SOL    HW120030  10.401   4.957   6.745
39341SOL    HW220031  10.425   4.975   6.597
39342SOL     OW20032  10.922   4.820   6.681
39342SOL    HW120033  10.909   4.881   6.757
39342SOL    HW220034  10.863   4.861   6.617
39343SOL     OW20035  10.228   3.825   6.985
39343SOL    HW120036  10.253   3.796   6.895
39343SOL    HW220037  10.311   3.869   7.014
39344SOL     OW20038  10.308   4.828   7.335
39344SOL    HW120039  10.217   4.859   7.352
39344SOL    HW220040  10.293   4.754   7.273
39345SOL     OW20041  10.025   4.790   5.945
39345SOL    HW120042  10.010   4.775   6.040
39345SOL    HW220043  10.097   4.726   5.926
39346SOL     OW20044   9.731   4.536   6.842
39346SOL    HW120045   9.801   4.530   6.910
39346SOL    HW220046   9.678   4.457   6.857
39347SOL     OW20047  10.600   4.107   6.865
39347SOL    HW120048  10.622   4.189   6.914
39347SOL    HW220049  10.508   4.126   6.837
39348SOL     OW20050   9.386   5.296   6.926
39348SOL    HW120051   9.383   5.390   6.902
39348SOL    HW220052   9.482   5.278   6.926
39349SOL     OW20053   9.684   4.838   6.088
39349SOL    HW120054   9.681   4.906   6.020
39349SOL    HW220055   9.676   4.757   6.037
39350SOL     OW20056   9.848   4.258   6.437
39350SOL    HW120057   9.878   4.323   6.369
39350SOL    HW220058   9.907   4.282   6.512
39351SOL     OW20059  10.563   5.096   5.957
39351SOL    HW120060  10.613   5.165   6.005
39351SOL    HW220061  10.475   5.106   5.999
39352SOL     OW20062  10.603   5.187   6.763
39352SOL    HW120063  10.671   5.185   6.832
39352SOL    HW220064  10.533   5.131   6.801
39353SOL     OW20065  10.898   4.353   6.068
39353SOL    HW120066  10.836   4.407   6.119
39353SOL    HW220067  10.940   4.417   6.010
39354SOL     OW20068   9.649   5.240   6.913
39354SOL    HW120069   9.636   5.206   6.822
39354SOL    HW220070   9.743   5.266   6.908
39355SOL     OW20071   9.757   4.457   7.213
39355SOL    HW120072   9.811   4.504   7.147
39355SOL    HW220073   9.783   4.365   7.199
39356SOL     OW20074  10.909   4.477   7.251
39356SOL    HW120075  10.830   4.533   7.261
39356SOL    HW220076  10.963   4.533   7.191
39357SOL     OW20077  10.303   3.831   7.328
39357SOL    HW120078  10.366   3.903   7.317
39357SOL    HW220079  10.353   3.757   7.290
39358SOL     OW20080   9.809   3.737   7.342
39358SOL    HW120081   9.762   3.684   7.274
39358SOL    HW220082   9.751   3.816   7.348
39359SOL     OW20083   9.908   4.613   6.643
39359SOL    HW120084   9.928   4.708   6.642
39359SOL    HW220085   9.844   4.604   6.716
39360SOL     OW20086  10.699   4.590   6.609
39360SOL    HW120087  10.612   4.553   6.595
39360SOL    HW220088  10.752   4.509   6.616
39361SOL     OW20089  10.531   4.252   5.861
39361SOL    HW120090  10.531   4.174   5.919
39361SOL    HW220091  10.467   4.310   5.907
39362SOL     OW20092   9.601   3.938   6.816
39362SOL    HW120093   9.549   3.965   6.893
39362SOL    HW220094   9.585   3.841   6.816
39363SOL     OW20095   9.353   5.025   6.869
39363SOL    HW120096   9.373   4.969   6.946
39363SOL    HW220097   9.360   5.115   6.903
39364SOL     OW20098  10.015   4.352   6.633
39364SOL    HW120099  10.103   4.330   6.596
39364SOL    HW220100  10.007   4.449   6.622
39365SOL     OW20101   9.625   3.786   6.206
39365SOL    HW120102   9.533   3.814   6.212
39365SOL    HW220103   9.635   3.734   6.289
39366SOL     OW20104  10.929   4.111   5.933
39366SOL    HW120105  10.965   4.045   5.993
39366SOL    HW220106  10.911   4.186   5.992
39367SOL     OW20107  10.365   4.461   6.551
39367SOL    HW120108  10.358   4.479   6.647
39367SOL    HW220109  10.321   4.375   6.543
39368SOL     OW20110  10.306   5.284   7.318
39368SOL    HW120111  10.284   5.340   7.240
39368SOL    HW220112  10.329   5.200   7.276
39369SOL     OW20113   9.664   4.632   7.388
39369SOL    HW120114   9.742   4.669   7.432
39369SOL    HW220115   9.701   4.557   7.337
39370SOL     OW20116  10.805   3.991   5.719
39370SOL    HW120117  10.750   3.925   5.764
39370SOL    HW220118  10.852   4.035   5.793
39371SOL     OW20119  10.590   4.555   5.616
39371SOL    HW120120  10.643   4.475   5.630
39371SOL    HW220121  10.623   4.585   5.529
39372SOL     OW20122  10.383   5.086   6.437
39372SOL    HW120123  10.401   5.012   6.377
39372SOL    HW220124  10.451   5.152   6.415
39373SOL     OW20125   9.584   4.544   6.586
39373SOL    HW120126   9.676   4.569   6.570
39373SOL    HW220127   9.593   4.451   6.610
39374SOL     OW20128   9.628   4.258   6.588
39374SOL    HW120129   9.611   4.162   6.582
39374SOL    HW220130   9.708   4.269   6.532
39375SOL     OW20131  10.451   4.106   7.263
39375SOL    HW120132  10.414   4.154   7.340
39375SOL    HW220133  10.543   4.141   7.261
39376SOL     OW20134  10.475   3.927   7.052
39376SOL    HW120135  10.469   3.994   7.122
39376SOL    HW220136  10.520   3.977   6.982
39377SOL     OW20137   9.315   5.054   5.790
39377SOL    HW120138   9.225   5.069   5.753
39377SOL    HW220139   9.309   4.959   5.815
39378SOL     OW20140   9.402   5.508   6.525
39378SOL    HW120141   9.378   5.434   6.465
39378SOL    HW220142   9.494   5.527   6.496
39379SOL     OW20143   9.792   5.315   6.516
39379SOL    HW120144   9.862   5.383   6.527
39379SOL    HW220145   9.840   5.248   6.462
39380SOL     OW20146  10.307   4.498   6.808
39380SOL    HW120147  10.355   4.476   6.889
39380SOL    HW220148  10.215   4.498   6.838
39381SOL     OW20149   9.357   4.242   6.695
39381SOL    HW120150   9.444   4.245   6.653
39381SOL    HW220151   9.378   4.265   6.787
39382SOL     OW20152   9.540   4.239   7.296
39382SOL    HW120153   9.588   4.193   7.225
39382SOL    HW220154   9.497   4.312   7.249
39383SOL     OW20155  10.711   4.658   7.245
39383SOL    HW120156  10.720   4.754   7.253
39383SOL    HW220157  10.687   4.647   7.151
39384SOL     OW20158  10.107   4.274   5.982
39384SOL    HW120159  10.123   4.215   5.907
39384SOL    HW220160  10.040   4.335   5.945
39385SOL     OW20161   9.556   5.260   7.308
39385SOL    HW120162   9.539   5.322   7.381
39385SOL    HW220163   9.566   5.176   7.356
39386SOL     OW20164   9.979   4.199   6.861
39386SOL    HW120165   9.944   4.120   6.818
39386SOL    HW220166   9.988   4.262   6.786
39387SOL     OW20167   9.759   4.201   5.799
39387SOL    HW120168   9.823   4.273   5.790
39387SOL    HW220169   9.675   4.246   5.779
39388SOL     OW20170   9.420   4.851   7.057
39388SOL    HW120171   9.434   4.794   7.137
39388SOL    HW220172   9.442   4.790   6.984
39389SOL     OW20173  10.622   4.769   6.805
39389SOL    HW120174  10.649   4.714   6.729
39389SOL    HW220175  10.560   4.831   6.761
39390SOL     OW20176  10.628   4.588   5.888
39390SOL    HW120177  10.555   4.550   5.938
39390SOL    HW220178  10.594   4.587   5.796
39391SOL     OW20179  11.036   5.469   6.715
39391SOL    HW120180   0.011   5.488   6.657
39391SOL    HW220181  11.021   5.374   6.700
39392SOL     OW20182  10.564   5.445   6.698
39392SOL    HW120183  10.651   5.453   6.654
39392SOL    HW220184  10.561   5.350   6.720
39393SOL     OW20185   9.413   4.985   6.613
39393SOL    HW120186   9.386   5.001   6.707
39393SOL    HW220187   9.332   4.947   6.576
39394SOL     OW20188  10.009   5.371   7.317
39394SOL    HW120189   9.958   5.454   7.319
39394SOL    HW220190  10.083   5.395   7.257
39395SOL     OW20191  11.039   3.859   6.123
39395SOL    HW120192  11.092   3.858   6.041
39395SOL    HW220193  11.037   3.765   6.149
39396SOL     OW20194  10.686   5.311   6.086
39396SOL    HW120195  10.739   5.334   6.007
39396SOL    HW220196  10.636   5.392   6.105
39397SOL     OW20197   9.453   5.526   7.414
39397SOL    HW120198   9.416   5.450   7.464
39397SOL    HW220199   9.505   5.570   7.483
39398SOL     OW20200  10.557   4.645   6.254
39398SOL    HW120201  10.635   4.592   6.278
39398SOL    HW220202  10.599   4.721   6.209
39399SOL     OW20203  10.109   4.968   7.026
39399SOL    HW120204  10.080   5.016   7.107
39399SOL    HW220205  10.053   5.010   6.959
39400SOL     OW20206   9.980   5.341   5.756
39400SOL    HW120207  10.008   5.344   5.664
39400SOL    HW220208   9.923   5.261   5.755
39401SOL     OW20209  10.501   5.361   5.611
39401SOL    HW120210  10.511   5.266   5.634
39401SOL    HW220211  10.445   5.358   5.532
39402SOL     OW20212  10.145   4.726   6.941
39402SOL    HW120213  10.176   4.743   6.851
39402SOL    HW220214  10.139   4.816   6.979
39403SOL     OW20215  10.217   4.625   5.868
39403SOL    HW120216  10.287   4.664   5.813
39403SOL    HW220217  10.264   4.553   5.913
39404SOL     OW20218  10.831   5.365   5.610
39404SOL    HW120219  10.736   5.354   5.602
39404SOL    HW220220  10.863   5.355   5.518
39405SOL     OW20221   9.646   5.002   7.074
39405SOL    HW120222   9.642   5.071   7.007
39405SOL    HW220223   9.565   4.951   7.059
39406SOL     OW20224  10.879   5.022   6.871
39406SOL    HW120225  10.950   5.004   6.934
39406SOL    HW220226  10.830   5.094   6.915
39407SOL     OW20227  10.363   4.835   6.312
39407SOL    HW120228  10.290   4.786   6.353
39407SOL    HW220229  10.423   4.762   6.287
39408SOL     OW20230  10.341   3.947   6.572
39408SOL    HW120231  10.321   3.902   6.487
39408SOL    HW220232  10.347   3.871   6.633
39409SOL     OW20233   9.922   5.198   6.081
39409SOL    HW120234   9.970   5.164   6.005
39409SOL    HW220235   9.845   5.241   6.041
39410SOL     OW20236   9.566   5.104   5.860
39410SOL    HW120237   9.470   5.088   5.848
39410SOL    HW220238   9.568   5.129   5.955
39411SOL     OW20239   9.441   4.716   7.277
39411SOL    HW120240   9.370   4.712   7.344
39411SOL    HW220241   9.521   4.693   7.329
39412SOL     OW20242   9.977   3.898   7.088
39412SOL    HW120243  10.066   3.870   7.058
39412SOL    HW220244   9.993   3.927   7.179
39413SOL     OW20245   9.405   4.070   5.631
39413SOL    HW120246   9.312   4.064   5.607
39413SOL    HW220247   9.435   4.142   5.573
39414SOL     OW20248  10.721   4.574   6.978
39414SOL    HW120249  10.683   4.639   6.916
39414SOL    HW220250  10.816   4.583   6.961
39415SOL     OW20251   9.355   3.892   5.883
39415SOL    HW120252   9.349   3.978   5.838
39415SOL    HW220253   9.438   3.857   5.847
39416SOL     OW20254  10.513   5.083   5.690
39416SOL    HW120255  10.440   5.021   5.699
39416SOL    HW220256  10.543   5.092   5.783
39417SOL     OW20257   9.931   4.541   7.025
39417SOL    HW120258   9.984   4.621   7.015
39417SOL    HW220259  10.001   4.475   7.039
39418SOL     OW20260  10.797   5.480   6.555
39418SOL    HW120261  10.834   5.515   6.473
39418SOL    HW220262  10.875   5.481   6.613
39419SOL     OW20263  10.090   4.225   7.324
39419SOL    HW120264  10.060   4.307   7.368
39419SOL    HW220265  10.182   4.249   7.306
39420SOL     OW20266  10.776   4.927   7.215
39420SOL    HW120267  10.765   4.928   7.313
39420SOL    HW220268  10.874   4.931   7.209
39421SOL     OW20269   9.675   5.456   7.150
39421SOL    HW120270   9.590   5.500   7.132
39421SOL    HW220271   9.645   5.370   7.186
39422SOL     OW20272  10.997   4.588   6.818
39422SOL    HW120273  11.013   4.513   6.759
39422SOL    HW220274  10.971   4.660   6.757
39423SOL     OW20275  10.503   4.056   6.060
39423SOL    HW120276  10.563   3.981   6.045
39423SOL    HW220277  10.550   4.103   6.132
39424SOL     OW20278   9.895   4.461   6.245
39424SOL    HW120279   9.937   4.548   6.236
39424SOL    HW220280   9.825   4.464   6.179
39425SOL     OW20281  11.062   4.111   7.231
39425SOL    HW120282  11.043   4.148   7.144
39425SOL    HW220283  10.985   4.055   7.250
39426SOL     OW20284  11.041   4.635   7.078
39426SOL    HW120285  11.032   4.731   7.073
39426SOL    HW220286  11.033   4.609   6.984
39427SOL     OW20287  10.154   5.102   5.616
39427SOL    HW120288  10.151   5.102   5.713
39427SOL    HW220289  10.205   5.180   5.592
39428SOL     OW20290   9.957   5.527   6.499
39428SOL    HW120291   9.950   5.622   6.483
39428SOL    HW220292  10.049   5.514   6.524
39429SOL     OW20293  10.183   4.663   6.440
39429SOL    HW120294  10.240   4.594   6.479
39429SOL    HW220295  10.167   4.723   6.514
39430SOL     OW20296  10.405   4.727   5.694
39430SOL    HW120297  10.372   4.771   5.614
39430SOL    HW220298  10.477   4.671   5.658
39431SOL     OW20299   0.056   5.271   6.431
39431SOL    HW120300  11.080   5.251   6.376
39431SOL    HW220301   0.067   5.190   6.481
39432SOL     OW20302   9.546   5.030   7.454
39432SOL    HW120303   9.465   4.980   7.440
39432SOL    HW220304   9.539   5.051   7.549
39433SOL     OW20305   9.392   4.983   6.252
39433SOL    HW120306   9.411   4.927   6.328
39433SOL    HW220307   9.452   4.948   6.185
39434SOL     OW20308   9.989   5.123   7.206
39434SOL    HW120309   9.907   5.084   7.241
39434SOL    HW220310   9.986   5.214   7.242
39435SOL     OW20311   0.003   3.895   6.780
39435SOL    HW120312   0.037   3.819   6.828
39435SOL    HW220313  11.097   3.863   6.691
39436SOL     OW20314   9.728   4.095   6.151
39436SOL    HW120315   9.750   4.050   6.068
39436SOL    HW220316   9.816   4.120   6.183
39437SOL     OW20317  10.982   5.213   6.681
39437SOL    HW120318  10.903   5.183   6.633
39437SOL    HW220319  10.999   5.139   6.741
39438SOL     OW20320   9.631   4.255   6.878
39438SOL    HW120321   9.695   4.216   6.940
39438SOL    HW220322   9.664   4.226   6.792
39439SOL     OW20323  10.134   5.314   6.263
39439SOL    HW120324  10.123   5.341   6.171
39439SOL    HW220325  10.050   5.271   6.283
39440SOL     OW20326  10.731   3.957   6.683
39440SOL    HW120327  10.764   3.877   6.725
39440SOL    HW220328  10.697   4.008   6.759
39441SOL     OW20329  10.322   3.716   6.738
39441SOL    HW120330  10.274   3.639   6.707
39441SOL    HW220331  10.415   3.686   6.727
39442SOL     OW20332  10.103   5.061   5.899
39442SOL    HW120333  10.062   4.972   5.901
39442SOL    HW220334  10.168   5.054   5.970
39443SOL     OW20335   9.910   5.290   6.857
39443SOL    HW120336   9.916   5.378   6.900
39443SOL    HW220337  10.003   5.283   6.826
39444SOL     OW20338  10.668   3.758   5.797
39444SOL    HW120339  10.685   3.719   5.711
39444SOL    HW220340  10.580   3.720   5.818
39445SOL     OW20341  10.631   4.192   6.263
39445SOL    HW120342  10.566   4.264   6.259
39445SOL    HW220343  10.624   4.162   6.355
39446SOL     OW20344  10.906   3.886   6.464
39446SOL    HW120345  10.836   3.911   6.526
39446SOL    HW220346  10.926   3.969   6.421
39447SOL     OW20347   9.357   4.804   5.896
39447SOL    HW120348   9.451   4.789   5.880
39447SOL    HW220349   9.327   4.712   5.910
39448SOL     OW20350  10.196   5.371   5.942
39448SOL    HW120351  10.118   5.355   5.886
39448SOL    HW220352  10.172   5.454   5.990
39449SOL     OW20353   9.539   4.353   7.581
39449SOL    HW120354   9.446   4.352   7.606
39449SOL    HW220355   9.540   4.336   7.485
39450SOL     OW20356   9.534   4.011   8.445
39450SOL    HW120357   9.558   3.988   8.536
39450SOL    HW220358   9.449   3.964   8.435
39451SOL     OW20359   9.312   4.134   8.071
39451SOL    HW120360   9.230   4.155   8.120
39451SOL    HW220361   9.289   4.048   8.034
39452SOL     OW20362   9.880   5.013   8.649
39452SOL    HW120363   9.795   5.013   8.602
39452SOL    HW220364   9.893   5.107   8.669
39453SOL     OW20365  10.892   5.216   8.141
39453SOL    HW120366  10.852   5.216   8.230
39453SOL    HW220367  10.815   5.210   8.083
39454SOL     OW20368  10.451   4.411   8.149
39454SOL    HW120369  10.484   4.501   8.132
39454SOL    HW220370  10.410   4.422   8.236
39455SOL     OW20371  11.075   4.329   7.677
39455SOL    HW120372  11.054   4.319   7.582
39455SOL    HW220373  11.044   4.244   7.713
39456SOL     OW20374  10.041   4.879   8.473
39456SOL    HW120375   9.985   4.923   8.541
39456SOL    HW220376  10.084   4.956   8.433
39457SOL     OW20377  10.186   4.476   9.257
39457SOL    HW120378  10.155   4.538   9.324
39457SOL    HW220379  10.198   4.535   9.179
39458SOL     OW20380  10.004   4.757   8.102
39458SOL    HW120381  10.062   4.726   8.174
39458SOL    HW220382   9.934   4.804   8.151
39459SOL     OW20383  10.022   4.885   9.249
39459SOL    HW120384  10.070   4.966   9.275
39459SOL    HW220385   9.937   4.920   9.217
39460SOL     OW20386   9.636   5.149   8.521
39460SOL    HW120387   9.566   5.100   8.474
39460SOL    HW220388   9.681   5.202   8.452
39461SOL     OW20389  10.796   5.258   8.849
39461SOL    HW120390  10.773   5.329   8.787
39461SOL    HW220391  10.709   5.244   8.892
39462SOL     OW20392   9.750   4.124   8.961
39462SOL    HW120393   9.824   4.063   8.953
39462SOL    HW220394   9.672   4.066   8.950
39463SOL     OW20395   9.531   5.444   7.923
39463SOL    HW120396   9.556   5.519   7.981
39463SOL    HW220397   9.599   5.451   7.854
39464SOL     OW20398  10.437   5.068   9.142
39464SOL    HW120399  10.478   5.060   9.229
39464SOL    HW220400  10.387   4.983   9.136
39465SOL     OW20401   9.568   5.158   7.980
39465SOL    HW120402   9.560   5.255   7.981
39465SOL    HW220403   9.497   5.132   8.041
39466SOL     OW20404   9.575   4.807   8.352
39466SOL    HW120405   9.579   4.733   8.414
39466SOL    HW220406   9.524   4.872   8.402
39467SOL     OW20407   9.895   5.525   8.851
39467SOL    HW120408   9.827   5.496   8.914
39467SOL    HW220409   9.922   5.612   8.888
39468SOL     OW20410   9.875   4.721   7.558
39468SOL    HW120411   9.931   4.770   7.494
39468SOL    HW220412   9.916   4.750   7.642
39469SOL     OW20413  10.923   3.812   8.945
39469SOL    HW120414  10.917   3.884   8.882
39469SOL    HW220415  10.917   3.857   9.030
39470SOL     OW20416   9.430   4.382   8.018
39470SOL    HW120417   9.396   4.292   8.032
39470SOL    HW220418   9.419   4.423   8.106
39471SOL     OW20419   9.374   5.319   7.567
39471SOL    HW120420   9.354   5.225   7.583
39471SOL    HW220421   9.343   5.360   7.649
39472SOL     OW20422  11.017   4.700   8.028
39472SOL    HW120423  11.055   4.620   8.067
39472SOL    HW220424  11.041   4.687   7.935
39473SOL     OW20425   9.444   4.465   9.034
39473SOL    HW120426   9.539   4.484   9.036
39473SOL    HW220427   9.409   4.547   9.072
39474SOL     OW20428   9.897   5.133   8.218
39474SOL    HW120429   9.866   5.040   8.224
39474SOL    HW220430   9.886   5.149   8.123
39475SOL     OW20431  10.588   4.955   8.889
39475SOL    HW120432  10.619   4.895   8.820
39475SOL    HW220433  10.657   4.948   8.958
39476SOL     OW20434  10.147   3.731   7.951
39476SOL    HW120435  10.178   3.823   7.940
39476SOL    HW220436  10.052   3.745   7.972
39477SOL     OW20437   9.489   4.697   8.713
39477SOL    HW120438   9.580   4.667   8.700
39477SOL    HW220439   9.437   4.628   8.671
39478SOL     OW20440  10.843   4.717   7.657
39478SOL    HW120441  10.773   4.665   7.701
39478SOL    HW220442  10.909   4.728   7.726
39479SOL     OW20443  10.495   5.521   9.053
39479SOL    HW120444  10.488   5.577   8.974
39479SOL    HW220445  10.522   5.436   9.013
39480SOL     OW20446   9.647   3.957   9.223
39480SOL    HW120447   9.708   4.028   9.247
39480SOL    HW220448   9.565   3.986   9.268
39481SOL     OW20449  10.771   5.150   8.393
39481SOL    HW120450  10.718   5.162   8.475
39481SOL    HW220451  10.755   5.056   8.374
39482SOL     OW20452  10.991   5.443   8.030
39482SOL    HW120453  10.953   5.391   7.959
39482SOL    HW220454  10.966   5.389   8.107
39483SOL     OW20455   9.898   4.431   7.709
39483SOL    HW120456   9.897   4.523   7.680
39483SOL    HW220457   9.824   4.429   7.773
39484SOL     OW20458  10.561   4.072   8.357
39484SOL    HW120459  10.474   4.032   8.378
39484SOL    HW220460  10.618   4.031   8.424
39485SOL     OW20461  10.863   5.355   7.736
39485SOL    HW120462  10.911   5.438   7.735
39485SOL    HW220463  10.850   5.339   7.640
39486SOL     OW20464  10.099   4.341   8.914
39486SOL    HW120465  10.083   4.300   9.002
39486SOL    HW220466  10.051   4.281   8.854
39487SOL     OW20467  10.696   4.208   9.120
39487SOL    HW120468  10.700   4.267   9.197
39487SOL    HW220469  10.750   4.132   9.148
39488SOL     OW20470  10.254   4.614   9.033
39488SOL    HW120471  10.292   4.532   8.996
39488SOL    HW220472  10.213   4.653   8.953
39489SOL     OW20473  10.317   4.107   8.693
39489SOL    HW120474  10.233   4.136   8.730
39489SOL    HW220475  10.292   4.063   8.611
39490SOL     OW20476  10.355   4.417   7.869
39490SOL    HW120477  10.370   4.429   7.965
39490SOL    HW220478  10.269   4.371   7.867
39491SOL     OW20479   9.406   4.535   8.249
39491SOL    HW120480   9.482   4.535   8.309
39491SOL    HW220481   9.361   4.616   8.276
39492SOL     OW20482   9.414   5.567   9.022
39492SOL    HW120483   9.425   5.545   9.117
39492SOL    HW220484   9.319   5.555   9.009
39493SOL     OW20485  10.204   4.091   7.652
39493SOL    HW120486  10.230   4.158   7.586
39493SOL    HW220487  10.268   4.022   7.632
39494SOL     OW20488  11.012   4.312   9.281
39494SOL    HW120489  10.980   4.384   9.223
39494SOL    HW220490  11.069   4.262   9.221
39495SOL     OW20491  10.670   4.884   8.022
39495SOL    HW120492  10.738   4.893   7.954
39495SOL    HW220493  10.602   4.943   7.987
39496SOL     OW20494   9.858   3.929   8.343
39496SOL    HW120495   9.867   3.936   8.440
39496SOL    HW220496   9.845   4.021   8.315
39497SOL     OW20497  10.335   5.179   7.949
39497SOL    HW120498  10.302   5.246   7.886
39497SOL    HW220499  10.324   5.223   8.034
39498SOL     OW20500   9.652   5.541   8.306
39498SOL    HW120501   9.702   5.457   8.316
39498SOL    HW220502   9.722   5.607   8.322
39499SOL     OW20503  11.081   4.758   8.330
39499SOL    HW120504  11.009   4.784   8.271
39499SOL    HW220505  11.042   4.766   8.419
39500SOL     OW20506  10.535   5.253   8.964
39500SOL    HW120507  10.518   5.174   9.017
39500SOL    HW220508  10.487   5.234   8.883
39501SOL     OW20509   9.617   4.669   7.698
39501SOL    HW120510   9.691   4.707   7.648
39501SOL    HW220511   9.597   4.589   7.647
39502SOL     OW20512  10.779   4.484   8.171
39502SOL    HW120513  10.754   4.429   8.247
39502SOL    HW220514  10.860   4.526   8.201
39503SOL     OW20515   9.774   4.992   9.172
39503SOL    HW120516   9.730   4.998   9.084
39503SOL    HW220517   9.696   4.989   9.230
39504SOL     OW20518  10.434   5.492   7.700
39504SOL    HW120519  10.357   5.445   7.736
39504SOL    HW220520  10.451   5.448   7.615
39505SOL     OW20521   9.479   4.012   8.953
39505SOL    HW120522   9.400   4.060   8.983
39505SOL    HW220523   9.487   3.942   9.020
39506SOL     OW20524   9.771   5.458   7.770
39506SOL    HW120525   9.820   5.509   7.838
39506SOL    HW220526   9.841   5.427   7.711
39507SOL     OW20527  10.732   3.842   7.907
39507SOL    HW120528  10.720   3.806   7.817
39507SOL    HW220529  10.828   3.832   7.922
39508SOL     OW20530   9.561   5.517   8.683
39508SOL    HW120531   9.618   5.449   8.721
39508SOL    HW220532   9.549   5.485   8.592
39509SOL     OW20533  10.271   5.433   8.329
39509SOL    HW120534  10.354   5.384   8.343
39509SOL    HW220535  10.226   5.380   8.261
39510SOL     OW20536   9.705   4.404   7.906
39510SOL    HW120537   9.722   4.314   7.939
39510SOL    HW220538   9.612   4.416   7.930
39511SOL     OW20539  10.838   3.961   9.182
39511SOL    HW120540  10.831   3.974   9.279
39511SOL    HW220541  10.783   3.883   9.171
39512SOL     OW20542  10.075   3.976   9.188
39512SOL    HW120543  10.153   3.918   9.199
39512SOL    HW220544  10.022   3.956   9.266
39513SOL     OW20545  10.179   5.264   8.646
39513SOL    HW120546  10.179   5.238   8.552
39513SOL    HW220547  10.240   5.200   8.686
39514SOL     OW20548  10.618   4.324   8.875
39514SOL    HW120549  10.660   4.286   8.953
39514SOL    HW220550  10.666   4.408   8.862
39515SOL     OW20551  10.138   5.126   8.387
39515SOL    HW120552  10.224   5.118   8.340
39515SOL    HW220553  10.075   5.132   8.313
39516SOL     OW20554  10.235   4.237   8.355
39516SOL    HW120555  10.214   4.227   8.259
39516SOL    HW220556  10.258   4.145   8.378
39517SOL     OW20557   9.869   3.776   7.952
39517SOL    HW120558   9.794   3.785   8.013
39517SOL    HW220559   9.855   3.851   7.892
39518SOL     OW20560  10.753   4.891   7.472
39518SOL    HW120561  10.777   4.822   7.536
39518SOL    HW220562  10.674   4.930   7.511
39519SOL     OW20563   9.580   3.778   7.641
39519SOL    HW120564   9.629   3.856   7.613
39519SOL    HW220565   9.653   3.721   7.675
39520SOL     OW20566  10.241   3.981   7.933
39520SOL    HW120567  10.224   4.034   7.854
39520SOL    HW220568  10.337   3.993   7.945
39521SOL     OW20569  10.364   4.403   8.916
39521SOL    HW120570  10.311   4.322   8.921
39521SOL    HW220571  10.456   4.369   8.912
39522SOL     OW20572  10.542   5.309   8.223
39522SOL    HW120573  10.549   5.378   8.155
39522SOL    HW220574  10.618   5.328   8.279
39523SOL     OW20575   9.784   4.888   8.194
39523SOL    HW120576   9.711   4.855   8.249
39523SOL    HW220577   9.748   4.870   8.104
39524SOL     OW20578  10.555   5.547   8.043
39524SOL    HW120579  10.615   5.593   7.982
39524SOL    HW220580  10.545   5.613   8.112
39525SOL     OW20581  10.351   4.256   7.477
39525SOL    HW120582  10.316   4.344   7.454
39525SOL    HW220583  10.424   4.277   7.538
39526SOL     OW20584   9.375   4.275   8.850
39526SOL    HW120585   9.469   4.258   8.831
39526SOL    HW220586   9.381   4.357   8.905
39527SOL     OW20587   9.875   3.947   8.613
39527SOL    HW120588   9.920   3.880   8.666
39527SOL    HW220589   9.783   3.940   8.646
39528SOL     OW20590  10.185   4.186   8.105
39528SOL    HW120591  10.151   4.235   8.029
39528SOL    HW220592  10.202   4.098   8.068
39529SOL     OW20593  10.330   3.801   8.208
39529SOL    HW120594  10.297   3.778   8.119
39529SOL    HW220595  10.310   3.719   8.257
39530SOL     OW20596  10.738   4.885   8.327
39530SOL    HW120597  10.685   4.811   8.361
39530SOL    HW220598  10.711   4.888   8.234
39531SOL     OW20599  10.771   4.330   8.452
39531SOL    HW120600  10.717   4.251   8.449
39531SOL    HW220601  10.859   4.295   8.474
39532SOL     OW20602   0.029   4.539   7.827
39532SOL    HW120603   0.074   4.488   7.897
39532SOL    HW220604   0.020   4.469   7.759
39533SOL     OW20605   9.800   5.145   7.573
39533SOL    HW120606   9.718   5.128   7.624
39533SOL    HW220607   9.790   5.088   7.496
39534SOL     OW20608  10.706   4.325   7.518
39534SOL    HW120609  10.652   4.289   7.591
39534SOL    HW220610  10.796   4.314   7.551
39535SOL     OW20611   9.826   3.960   7.764
39535SOL    HW120612   9.870   3.964   7.679
39535SOL    HW220613   9.787   4.050   7.762
39536SOL     OW20614  11.039   4.944   9.025
39536SOL    HW120615   0.024   4.909   9.052
39536SOL    HW220616  11.054   5.040   9.028
39537SOL     OW20617  10.368   5.073   8.779
39537SOL    HW120618  10.290   5.040   8.824
39537SOL    HW220619  10.440   5.030   8.831
39538SOL     OW20620  10.942   5.362   9.093
39538SOL    HW120621  10.918   5.368   8.999
39538SOL    HW220622  11.024   5.312   9.089
39539SOL     OW20623  10.427   4.940   8.536
39539SOL    HW120624  10.378   4.983   8.608
39539SOL    HW220625  10.400   4.990   8.458
39540SOL     OW20626  10.929   4.827   8.553
39540SOL    HW120627  10.915   4.890   8.626
39540SOL    HW220628  10.870   4.863   8.486
39541SOL     OW20629  10.223   3.823   8.840
39541SOL    HW120630  10.251   3.794   8.751
39541SOL    HW220631  10.306   3.864   8.874
39542SOL     OW20632  10.310   4.834   9.186
39542SOL    HW120633  10.219   4.859   9.212
39542SOL    HW220634  10.294   4.757   9.128
39543SOL     OW20635  10.018   4.781   7.786
39543SOL    HW120636  10.012   4.771   7.882
39543SOL    HW220637  10.096   4.725   7.764
39544SOL     OW20638   9.728   4.531   8.714
39544SOL    HW120639   9.802   4.525   8.778
39544SOL    HW220640   9.682   4.446   8.727
39545SOL     OW20641  10.593   4.107   8.712
39545SOL    HW120642  10.613   4.189   8.762
39545SOL    HW220643  10.497   4.117   8.696
39546SOL     OW20644   9.386   5.295   8.790
39546SOL    HW120645   9.382   5.387   8.760
39546SOL    HW220646   9.482   5.277   8.790
39547SOL     OW20647   9.684   4.835   7.958
39547SOL    HW120648   9.690   4.901   7.887
39547SOL    HW220649   9.679   4.753   7.908
39548SOL     OW20650   9.859   4.262   8.296
39548SOL    HW120651   9.885   4.322   8.224
39548SOL    HW220652   9.927   4.280   8.362
39549SOL     OW20653  10.568   5.089   7.822
39549SOL    HW120654  10.612   5.167   7.861
39549SOL    HW220655  10.479   5.098   7.860
39550SOL     OW20656  10.631   5.171   8.623
39550SOL    HW120657  10.618   5.268   8.630
39550SOL    HW220658  10.544   5.136   8.645
39551SOL     OW20659  10.895   4.358   7.922
39551SOL    HW120660  10.840   4.409   7.984
39551SOL    HW220661  10.929   4.425   7.862
39552SOL     OW20662   9.647   5.235   8.770
39552SOL    HW120663   9.637   5.198   8.680
39552SOL    HW220664   9.742   5.258   8.768
39553SOL     OW20665   9.748   4.448   9.074
39553SOL    HW120666   9.805   4.499   9.014
39553SOL    HW220667   9.784   4.359   9.064
39554SOL     OW20668  10.924   4.485   9.106
39554SOL    HW120669  10.838   4.529   9.114
39554SOL    HW220670  10.972   4.547   9.047
39555SOL     OW20671  10.302   3.831   9.199
39555SOL    HW120672  10.357   3.908   9.183
39555SOL    HW220673  10.356   3.762   9.157
39556SOL     OW20674   9.810   3.731   9.208
39556SOL    HW120675   9.768   3.678   9.138
39556SOL    HW220676   9.749   3.808   9.212
39557SOL     OW20677   9.860   4.617   8.490
39557SOL    HW120678   9.910   4.700   8.500
39557SOL    HW220679   9.826   4.600   8.579
39558SOL     OW20680  10.698   4.599   8.476
39558SOL    HW120681  10.606   4.572   8.460
39558SOL    HW220682  10.739   4.512   8.486
39559SOL     OW20683  10.524   4.248   7.720
39559SOL    HW120684  10.532   4.172   7.779
39559SOL    HW220685  10.472   4.310   7.774
39560SOL     OW20686   9.608   3.936   8.699
39560SOL    HW120687   9.556   3.963   8.777
39560SOL    HW220688   9.588   3.840   8.696
39561SOL     OW20689   9.343   5.017   8.729
39561SOL    HW120690   9.371   4.960   8.804
39561SOL    HW220691   9.352   5.107   8.764
39562SOL     OW20692  10.040   4.374   8.501
39562SOL    HW120693  10.115   4.342   8.446
39562SOL    HW220694  10.012   4.457   8.460
39563SOL     OW20695   9.609   3.786   8.058
39563SOL    HW120696   9.584   3.876   8.084
39563SOL    HW220697   9.614   3.741   8.145
39564SOL     OW20698  10.944   4.113   7.804
39564SOL    HW120699  10.967   4.048   7.872
39564SOL    HW220700  10.921   4.192   7.859
39565SOL     OW20701  10.364   4.466   8.413
39565SOL    HW120702  10.348   4.476   8.509
39565SOL    HW220703  10.325   4.377   8.398
39566SOL     OW20704  10.288   5.291   9.162
39566SOL    HW120705  10.287   5.340   9.077
39566SOL    HW220706  10.341   5.213   9.139
39567SOL     OW20707   9.666   4.625   9.247
39567SOL    HW120708   9.748   4.648   9.293
39567SOL    HW220709   9.692   4.548   9.193
39568SOL     OW20710  10.808   3.997   7.582
39568SOL    HW120711  10.761   3.929   7.632
39568SOL    HW220712  10.865   4.038   7.650
39569SOL     OW20713  10.614   4.573   7.475
39569SOL    HW120714  10.658   4.486   7.488
39569SOL    HW220715  10.652   4.602   7.390
39570SOL     OW20716  10.381   5.089   8.297
39570SOL    HW120717  10.390   5.012   8.238
39570SOL    HW220718  10.451   5.150   8.267
39571SOL     OW20719   9.594   4.540   8.453
39571SOL    HW120720   9.688   4.562   8.445
39571SOL    HW220721   9.599   4.444   8.470
39572SOL     OW20722   9.642   4.262   8.454
39572SOL    HW120723   9.610   4.171   8.440
39572SOL    HW220724   9.713   4.270   8.387
39573SOL     OW20725  10.445   4.103   9.117
39573SOL    HW120726  10.405   4.149   9.193
39573SOL    HW220727  10.535   4.142   9.116
39574SOL     OW20728  10.466   3.920   8.920
39574SOL    HW120729  10.464   3.987   8.992
39574SOL    HW220730  10.501   3.971   8.846
39575SOL     OW20731   9.314   5.046   7.637
39575SOL    HW120732   9.222   5.058   7.605
39575SOL    HW220733   9.312   4.955   7.673
39576SOL     OW20734   9.406   5.503   8.395
39576SOL    HW120735   9.378   5.432   8.334
39576SOL    HW220736   9.498   5.521   8.363
39577SOL     OW20737   9.790   5.320   8.379
39577SOL    HW120738   9.861   5.387   8.392
39577SOL    HW220739   9.839   5.252   8.328
39578SOL     OW20740  10.296   4.492   8.670
39578SOL    HW120741  10.334   4.462   8.755
39578SOL    HW220742  10.202   4.477   8.687
39579SOL     OW20743   9.337   4.242   8.560
39579SOL    HW120744   9.417   4.233   8.506
39579SOL    HW220745   9.374   4.258   8.648
39580SOL     OW20746   9.535   4.237   9.167
39580SOL    HW120747   9.587   4.192   9.099
39580SOL    HW220748   9.492   4.309   9.117
39581SOL     OW20749  10.704   4.651   9.102
39581SOL    HW120750  10.711   4.748   9.108
39581SOL    HW220751  10.671   4.638   9.012
39582SOL     OW20752  10.117   4.291   7.833
39582SOL    HW120753  10.127   4.228   7.761
39582SOL    HW220754  10.044   4.347   7.801
39583SOL     OW20755   9.558   5.270   9.176
39583SOL    HW120756   9.554   5.341   9.242
39583SOL    HW220757   9.566   5.190   9.232
39584SOL     OW20758   9.988   4.201   8.714
39584SOL    HW120759   9.949   4.123   8.673
39584SOL    HW220760   9.996   4.265   8.640
39585SOL     OW20761  10.246   5.416   8.920
39585SOL    HW120762  10.227   5.388   8.829
39585SOL    HW220763  10.237   5.513   8.915
39586SOL     OW20764   9.755   4.196   7.653
39586SOL    HW120765   9.819   4.269   7.656
39586SOL    HW220766   9.671   4.244   7.642
39587SOL     OW20767   9.423   4.849   8.923
39587SOL    HW120768   9.439   4.796   9.005
39587SOL    HW220769   9.446   4.785   8.852
39588SOL     OW20770  10.624   4.783   8.670
39588SOL    HW120771  10.652   4.730   8.593
39588SOL    HW220772  10.558   4.843   8.631
39589SOL     OW20773  10.630   4.584   7.752
39589SOL    HW120774  10.550   4.554   7.797
39589SOL    HW220775  10.601   4.588   7.659
39590SOL     OW20776  11.056   5.472   8.593
39590SOL    HW120777   0.015   5.499   8.521
39590SOL    HW220778  11.026   5.384   8.565
39591SOL     OW20779   9.418   4.987   8.474
39591SOL    HW120780   9.384   4.997   8.566
39591SOL    HW220781   9.346   4.937   8.433
39592SOL     OW20782  10.006   5.368   9.193
39592SOL    HW120783   9.979   5.458   9.172
39592SOL    HW220784  10.099   5.366   9.162
39593SOL     OW20785  11.044   3.856   7.999
39593SOL    HW120786  11.090   3.856   7.912
39593SOL    HW220787  11.042   3.762   8.023
39594SOL     OW20788  10.678   5.317   7.937
39594SOL    HW120789  10.734   5.337   7.859
39594SOL    HW220790  10.626   5.398   7.949
39595SOL     OW20791   9.456   5.522   9.286
39595SOL    HW120792   9.418   5.447   9.337
39595SOL    HW220793   9.505   5.569   9.356
39596SOL     OW20794  10.561   4.651   8.112
39596SOL    HW120795  10.640   4.597   8.128
39596SOL    HW220796  10.599   4.727   8.065
39597SOL     OW20797  10.088   4.967   8.876
39597SOL    HW120798  10.069   5.021   8.955
39597SOL    HW220799  10.013   4.989   8.819
39598SOL     OW20800   9.985   5.339   7.611
39598SOL    HW120801  10.006   5.354   7.517
39598SOL    HW220802   9.926   5.261   7.603
39599SOL     OW20803   9.555   4.040   8.153
39599SOL    HW120804   9.471   4.084   8.134
39599SOL    HW220805   9.564   4.052   8.249
39600SOL     OW20806  10.516   5.368   7.479
39600SOL    HW120807  10.515   5.272   7.496
39600SOL    HW220808  10.454   5.375   7.404
39601SOL     OW20809  10.143   4.719   8.816
39601SOL    HW120810  10.194   4.732   8.735
39601SOL    HW220811  10.124   4.811   8.843
39602SOL     OW20812  10.219   4.626   7.712
39602SOL    HW120813  10.292   4.666   7.661
39602SOL    HW220814  10.265   4.563   7.769
39603SOL     OW20815  10.828   5.317   7.481
39603SOL    HW120816  10.735   5.344   7.471
39603SOL    HW220817  10.865   5.333   7.392
39604SOL     OW20818   9.652   4.997   8.937
39604SOL    HW120819   9.646   5.067   8.871
39604SOL    HW220820   9.569   4.949   8.926
39605SOL     OW20821  10.883   5.027   8.734
39605SOL    HW120822  10.944   5.016   8.808
39605SOL    HW220823  10.826   5.101   8.765
39606SOL     OW20824  10.362   4.835   8.181
39606SOL    HW120825  10.291   4.782   8.220
39606SOL    HW220826  10.427   4.767   8.157
39607SOL     OW20827  10.330   3.950   8.433
39607SOL    HW120828  10.321   3.904   8.347
39607SOL    HW220829  10.343   3.874   8.493
39608SOL     OW20830   9.925   5.202   7.940
39608SOL    HW120831   9.983   5.164   7.872
39608SOL    HW220832   9.853   5.240   7.887
39609SOL     OW20833   9.563   5.100   7.721
39609SOL    HW120834   9.467   5.084   7.712
39609SOL    HW220835   9.570   5.123   7.816
39610SOL     OW20836   9.443   4.724   9.151
39610SOL    HW120837   9.369   4.717   9.215
39610SOL    HW220838   9.521   4.697   9.204
39611SOL     OW20839   9.980   3.912   8.934
39611SOL    HW120840  10.066   3.879   8.901
39611SOL    HW220841  10.005   3.948   9.021
39612SOL     OW20842   9.424   4.048   7.449
39612SOL    HW120843   9.329   4.056   7.446
39612SOL    HW220844   9.451   4.127   7.398
39613SOL     OW20845  10.717   4.580   8.831
39613SOL    HW120846  10.671   4.643   8.771
39613SOL    HW220847  10.807   4.614   8.827
39614SOL     OW20848   9.352   3.885   7.744
39614SOL    HW120849   9.345   3.976   7.710
39614SOL    HW220850   9.434   3.854   7.700
39615SOL     OW20851  10.511   5.088   7.551
39615SOL    HW120852  10.424   5.045   7.554
39615SOL    HW220853  10.536   5.091   7.645
39616SOL     OW20854   9.931   4.540   8.887
39616SOL    HW120855   9.990   4.615   8.871
39616SOL    HW220856   9.998   4.468   8.895
39617SOL     OW20857  10.832   5.456   8.356
39617SOL    HW120858  10.871   5.540   8.329
39617SOL    HW220859  10.802   5.473   8.447
39618SOL     OW20860  10.042   4.255   9.153
39618SOL    HW120861  10.077   4.322   9.214
39618SOL    HW220862  10.059   4.170   9.198
39619SOL     OW20863  10.776   4.918   9.073
39619SOL    HW120864  10.767   4.922   9.171
39619SOL    HW220865  10.873   4.927   9.062
39620SOL     OW20866   9.677   5.454   9.011
39620SOL    HW120867   9.591   5.496   8.996
39620SOL    HW220868   9.650   5.370   9.052
39621SOL     OW20869  10.998   4.602   8.678
39621SOL    HW120870  10.993   4.533   8.610
39621SOL    HW220871  10.962   4.680   8.631
39622SOL     OW20872  10.512   4.042   7.924
39622SOL    HW120873  10.582   3.975   7.913
39622SOL    HW220874  10.551   4.097   7.996
39623SOL     OW20875   9.909   4.468   8.105
39623SOL    HW120876   9.942   4.558   8.092
39623SOL    HW220877   9.835   4.463   8.044
39624SOL     OW20878  11.061   4.104   9.076
39624SOL    HW120879  11.016   4.166   9.017
39624SOL    HW220880  10.988   4.056   9.120
39625SOL     OW20881  11.049   4.651   8.938
39625SOL    HW120882  11.039   4.747   8.942
39625SOL    HW220883  11.035   4.631   8.843
39626SOL     OW20884  10.169   5.090   7.482
39626SOL    HW120885  10.148   5.111   7.574
39626SOL    HW220886  10.199   5.175   7.445
39627SOL     OW20887   9.966   5.521   8.364
39627SOL    HW120888   9.957   5.616   8.347
39627SOL    HW220889  10.062   5.508   8.366
39628SOL     OW20890  10.186   4.664   8.302
39628SOL    HW120891  10.246   4.601   8.344
39628SOL    HW220892  10.163   4.725   8.374
39629SOL     OW20893  10.419   4.726   7.560
39629SOL    HW120894  10.385   4.770   7.480
39629SOL    HW220895  10.496   4.678   7.524
39630SOL     OW20896   0.064   5.269   8.283
39630SOL    HW120897  11.078   5.262   8.241
39630SOL    HW220898   0.063   5.196   8.346
39631SOL     OW20899   9.557   5.040   9.317
39631SOL    HW120900   9.477   4.988   9.297
39631SOL    HW220901   9.546   5.054   9.413
39632SOL     OW20902   9.396   4.975   8.106
39632SOL    HW120903   9.412   4.928   8.189
39632SOL    HW220904   9.469   4.942   8.051
39633SOL     OW20905   9.982   5.126   9.068
39633SOL    HW120906   9.905   5.075   9.100
39633SOL    HW220907   9.973   5.210   9.116
39634SOL     OW20908   0.012   3.904   8.621
39634SOL    HW120909   0.021   3.831   8.683
39634SOL    HW220910  11.078   3.860   8.543
39635SOL     OW20911   9.748   4.152   7.990
39635SOL    HW120912   9.794   4.077   7.953
39635SOL    HW220913   9.691   4.114   8.059
39636SOL     OW20914  10.989   5.205   8.544
39636SOL    HW120915  10.912   5.207   8.485
39636SOL    HW220916  10.957   5.148   8.616
39637SOL     OW20917   9.631   4.256   8.733
39637SOL    HW120918   9.699   4.215   8.788
39637SOL    HW220919   9.658   4.233   8.643
39638SOL     OW20920  10.131   5.316   8.124
39638SOL    HW120921  10.127   5.347   8.032
39638SOL    HW220922  10.045   5.274   8.135
39639SOL     OW20923  10.734   3.963   8.538
39639SOL    HW120924  10.765   3.886   8.587
39639SOL    HW220925  10.693   4.017   8.609
39640SOL     OW20926  10.328   3.718   8.601
39640SOL    HW120927  10.278   3.645   8.562
39640SOL    HW220928  10.421   3.686   8.592
39641SOL     OW20929  10.101   5.070   7.767
39641SOL    HW120930  10.064   4.981   7.755
39641SOL    HW220931  10.168   5.055   7.835
39642SOL     OW20932   9.906   5.284   8.715
39642SOL    HW120933   9.905   5.368   8.764
39642SOL    HW220934   9.999   5.282   8.688
39643SOL     OW20935  10.665   3.763   7.664
39643SOL    HW120936  10.685   3.717   7.581
39643SOL    HW220937  10.576   3.726   7.684
39644SOL     OW20938  10.624   4.193   8.126
39644SOL    HW120939  10.561   4.268   8.124
39644SOL    HW220940  10.599   4.149   8.209
39645SOL     OW20941  10.910   3.891   8.319
39645SOL    HW120942  10.836   3.897   8.380
39645SOL    HW220943  10.903   3.975   8.274
39646SOL     OW20944   9.361   4.785   7.749
39646SOL    HW120945   9.453   4.772   7.721
39646SOL    HW220946   9.338   4.694   7.779
39647SOL     OW20947  10.198   5.374   7.792
39647SOL    HW120948  10.125   5.356   7.730
39647SOL    HW220949  10.171   5.459   7.835
39648SOL     OW20950   9.540   4.356   9.448
39648SOL    HW120951   9.446   4.356   9.471
39648SOL    HW220952   9.543   4.331   9.354
39649SOL     OW20953   9.538   4.004  10.288
39649SOL    HW120954   9.554   3.986  10.382
39649SOL    HW220955   9.449   3.963  10.276
39650SOL     OW20956   9.308   4.121   9.928
39650SOL    HW120957   9.225   4.139   9.977
39650SOL    HW220958   9.285   4.040   9.880
39651SOL     OW20959   9.873   5.017  10.462
39651SOL    HW120960   9.780   5.011  10.434
39651SOL    HW220961   9.874   5.102  10.509
39652SOL     OW20962  10.898   5.237  10.020
39652SOL    HW120963  10.857   5.207  10.102
39652SOL    HW220964  10.823   5.231   9.958
39653SOL     OW20965  10.443   4.409  10.010
39653SOL    HW120966  10.474   4.498   9.985
39653SOL    HW220967  10.411   4.426  10.100
39654SOL     OW20968  11.078   4.324   9.538
39654SOL    HW120969  11.052   4.317   9.444
39654SOL    HW220970  11.043   4.241   9.573
39655SOL     OW20971  10.056   4.870  10.337
39655SOL    HW120972   9.987   4.918  10.388
39655SOL    HW220973  10.094   4.944  10.287
39656SOL     OW20974  10.155   4.489   0.037
39656SOL    HW120975  10.163   4.557   0.105
39656SOL    HW220976  10.185   4.537  11.058
39657SOL     OW20977  10.002   4.754   9.982
39657SOL    HW120978  10.060   4.726  10.055
39657SOL    HW220979   9.933   4.806  10.027
39658SOL     OW20980   9.626   5.153  10.383
39658SOL    HW120981   9.556   5.108  10.333
39658SOL    HW220982   9.678   5.199  10.314
39659SOL     OW20983  10.776   5.214  10.693
39659SOL    HW120984  10.799   5.307  10.694
39659SOL    HW220985  10.693   5.212  10.742
39660SOL     OW20986   9.759   4.107  10.775
39660SOL    HW120987   9.828   4.039  10.787
39660SOL    HW220988   9.678   4.061  10.801
39661SOL     OW20989   9.534   5.445   9.782
39661SOL    HW120990   9.560   5.525   9.832
39661SOL    HW220991   9.599   5.445   9.711
39662SOL     OW20992   9.554   5.146   9.840
39662SOL    HW120993   9.561   5.242   9.851
39662SOL    HW220994   9.487   5.122   9.906
39663SOL     OW20995   9.576   4.807  10.187
39663SOL    HW120996   9.583   4.731  10.246
39663SOL    HW220997   9.529   4.872  10.243
39664SOL     OW20998   9.905   5.520  10.730
39664SOL    HW120999   9.833   5.504  10.794
39664SOL    HW221000   9.933   5.611  10.751
39665SOL     OW21001   9.883   4.716   9.428
39665SOL    HW121002   9.934   4.768   9.363
39665SOL    HW221003   9.922   4.746   9.512
39666SOL     OW21004  10.908   3.847  10.810
39666SOL    HW121005  10.966   3.894  10.750
39666SOL    HW221006  10.926   3.888  10.895
39667SOL     OW21007   9.429   4.375   9.872
39667SOL    HW121008   9.396   4.284   9.888
39667SOL    HW221009   9.419   4.416   9.961
39668SOL     OW21010   9.368   5.314   9.433
39668SOL    HW121011   9.348   5.220   9.447
39668SOL    HW221012   9.335   5.356   9.514
39669SOL     OW21013  10.991   4.689   9.906
39669SOL    HW121014  11.060   4.627   9.933
39669SOL    HW221015  11.024   4.717   9.819
39670SOL     OW21016   9.429   4.466  10.904
39670SOL    HW121017   9.512   4.494  10.942
39670SOL    HW221018   9.379   4.550  10.904
39671SOL     OW21019   9.904   5.135  10.072
39671SOL    HW121020   9.866   5.045  10.076
39671SOL    HW221021   9.896   5.153   9.976
39672SOL     OW21022  10.613   4.970  10.746
39672SOL    HW121023  10.623   4.906  10.673
39672SOL    HW221024  10.686   4.945  10.804
39673SOL     OW21025  10.141   3.728   9.822
39673SOL    HW121026  10.169   3.821   9.816
39673SOL    HW221027  10.044   3.736   9.824
39674SOL     OW21028   9.509   4.692  10.610
39674SOL    HW121029   9.591   4.643  10.593
39674SOL    HW221030   9.444   4.643  10.558
39675SOL     OW21031  10.826   4.735   9.546
39675SOL    HW121032  10.758   4.675   9.583
39675SOL    HW221033  10.908   4.695   9.575
39676SOL     OW21034  10.521   5.515  10.904
39676SOL    HW121035  10.517   5.589  10.841
39676SOL    HW221036  10.524   5.437  10.845
39677SOL     OW21037   9.671   3.958  11.101
39677SOL    HW121038   9.725   4.024   0.045
39677SOL    HW221039   9.586   4.006  11.094
39678SOL     OW21040  10.768   5.143  10.258
39678SOL    HW121041  10.705   5.163  10.331
39678SOL    HW221042  10.748   5.050  10.238
39679SOL     OW21043  10.989   5.453   9.881
39679SOL    HW121044  10.958   5.399   9.807
39679SOL    HW221045  10.977   5.391   9.955
39680SOL     OW21046   9.909   4.434   9.574
39680SOL    HW121047   9.909   4.520   9.530
39680SOL    HW221048   9.839   4.445   9.640
39681SOL     OW21049  10.593   4.064  10.226
39681SOL    HW121050  10.501   4.033  10.231
39681SOL    HW221051  10.635   4.013  10.297
39682SOL     OW21052  10.863   5.355   9.601
39682SOL    HW121053  10.909   5.439   9.608
39682SOL    HW221054  10.849   5.348   9.503
39683SOL     OW21055  10.116   4.334  10.772
39683SOL    HW121056  10.088   4.305  10.861
39683SOL    HW221057  10.064   4.276  10.713
39684SOL     OW21058  10.248   4.598  10.907
39684SOL    HW121059  10.303   4.532  10.859
39684SOL    HW221060  10.207   4.648  10.834
39685SOL     OW21061  10.300   4.095  10.567
39685SOL    HW121062  10.223   4.149  10.591
39685SOL    HW221063  10.294   4.091  10.471
39686SOL     OW21064  10.338   4.417   9.722
39686SOL    HW121065  10.353   4.430   9.817
39686SOL    HW221066  10.256   4.364   9.722
39687SOL     OW21067   9.411   4.532  10.103
39687SOL    HW121068   9.484   4.539  10.167
39687SOL    HW221069   9.366   4.618  10.115
39688SOL     OW21070   9.421   5.566  10.873
39688SOL    HW121071   9.421   5.520  10.958
39688SOL    HW221072   9.329   5.561  10.845
39689SOL     OW21073  10.198   4.090   9.520
39689SOL    HW121074  10.244   4.152   9.461
39689SOL    HW221075  10.218   4.006   9.478
39690SOL     OW21076  10.676   4.881   9.881
39690SOL    HW121077  10.735   4.866   9.807
39690SOL    HW221078  10.616   4.948   9.844
39691SOL     OW21079   9.858   3.907  10.195
39691SOL    HW121080   9.862   3.934  10.288
39691SOL    HW221081   9.852   3.992  10.149
39692SOL     OW21082  10.334   5.188   9.802
39692SOL    HW121083  10.299   5.250   9.737
39692SOL    HW221084  10.302   5.225   9.885
39693SOL     OW21085   9.652   5.529  10.157
39693SOL    HW121086   9.703   5.448  10.178
39693SOL    HW221087   9.715   5.600  10.176
39694SOL     OW21088  11.099   4.754  10.173
39694SOL    HW121089  11.043   4.788  10.101
39694SOL    HW221090  11.040   4.754  10.250
39695SOL     OW21091  10.531   5.274  10.789
39695SOL    HW121092  10.539   5.200  10.850
39695SOL    HW221093  10.458   5.245  10.733
39696SOL     OW21094   9.616   4.683   9.557
39696SOL    HW121095   9.695   4.712   9.511
39696SOL    HW221096   9.597   4.598   9.514
39697SOL     OW21097  10.768   4.476  10.042
39697SOL    HW121098  10.766   4.426  10.126
39697SOL    HW221099  10.856   4.516  10.041
39698SOL     OW21100   9.774   5.008  11.040
39698SOL    HW121101   9.747   5.013  10.946
39698SOL    HW221102   9.723   4.932  11.070
39699SOL     OW21103  10.437   5.495   9.568
39699SOL    HW121104  10.357   5.456   9.606
39699SOL    HW221105  10.447   5.449   9.483
39700SOL     OW21106   9.488   4.012  10.785
39700SOL    HW121107   9.425   4.080  10.809
39700SOL    HW221108   9.463   3.937  10.841
39701SOL     OW21109   9.770   5.465   9.627
39701SOL    HW121110   9.815   5.517   9.696
39701SOL    HW221111   9.843   5.440   9.568
39702SOL     OW21112  10.727   3.837   9.758
39702SOL    HW121113  10.717   3.803   9.667
39702SOL    HW221114  10.823   3.842   9.769
39703SOL     OW21115   9.560   5.517  10.534
39703SOL    HW121116   9.626   5.456  10.570
39703SOL    HW221117   9.531   5.473  10.454
39704SOL     OW21118  10.274   5.430  10.195
39704SOL    HW121119  10.356   5.381  10.205
39704SOL    HW221120  10.226   5.374  10.130
39705SOL     OW21121   9.713   4.411   9.779
39705SOL    HW121122   9.731   4.317   9.799
39705SOL    HW221123   9.617   4.414   9.798
39706SOL     OW21124   9.941   3.857   9.400
39706SOL    HW121125  10.010   3.800   9.434
39706SOL    HW221126   9.893   3.798   9.338
39707SOL     OW21127  10.085   3.970  11.024
39707SOL    HW121128  10.141   3.931  11.092
39707SOL    HW221129  10.025   4.025  11.077
39708SOL     OW21130  10.197   5.265  10.509
39708SOL    HW121131  10.185   5.235  10.417
39708SOL    HW221132  10.251   5.195  10.548
39709SOL     OW21133  10.639   4.331  10.713
39709SOL    HW121134  10.680   4.299  10.794
39709SOL    HW221135  10.674   4.423  10.709
39710SOL     OW21136  10.141   5.120  10.265
39710SOL    HW121137  10.228   5.114  10.221
39710SOL    HW221138  10.080   5.129  10.190
39711SOL     OW21139  10.255   4.237  10.223
39711SOL    HW121140  10.229   4.234  10.128
39711SOL    HW221141  10.270   4.143  10.240
39712SOL     OW21142   9.865   3.778   9.811
39712SOL    HW121143   9.787   3.783   9.869
39712SOL    HW221144   9.847   3.851   9.747
39713SOL     OW21145  10.755   4.896   9.336
39713SOL    HW121146  10.775   4.832   9.408
39713SOL    HW221147  10.674   4.937   9.369
39714SOL     OW21148   9.584   3.767   9.500
39714SOL    HW121149   9.640   3.844   9.484
39714SOL    HW221150   9.650   3.704   9.536
39715SOL     OW21151  10.243   3.979   9.805
39715SOL    HW121152  10.216   4.024   9.724
39715SOL    HW221153  10.340   3.993   9.801
39716SOL     OW21154  10.391   4.414  10.778
39716SOL    HW121155  10.324   4.344  10.783
39716SOL    HW221156  10.473   4.368  10.755
39717SOL     OW21157  10.528   5.317  10.104
39717SOL    HW121158  10.540   5.377  10.028
39717SOL    HW221159  10.605   5.338  10.158
39718SOL     OW21160   9.779   4.898  10.047
39718SOL    HW121161   9.704   4.865  10.101
39718SOL    HW221162   9.747   4.871   9.957
39719SOL     OW21163  10.563   5.531   9.918
39719SOL    HW121164  10.616   5.585   9.855
39719SOL    HW221165  10.528   5.599   9.977
39720SOL     OW21166  10.344   4.258   9.327
39720SOL    HW121167  10.297   4.340   9.301
39720SOL    HW221168  10.419   4.291   9.379
39721SOL     OW21169   9.386   4.280  10.709
39721SOL    HW121170   9.479   4.281  10.680
39721SOL    HW221171   9.382   4.359  10.768
39722SOL     OW21172   9.870   3.956  10.473
39722SOL    HW121173   9.901   3.877  10.519
39722SOL    HW221174   9.778   3.961  10.504
39723SOL     OW21175  10.189   4.194   9.976
39723SOL    HW121176  10.141   4.240   9.906
39723SOL    HW221177  10.205   4.107   9.936
39724SOL     OW21178  10.320   3.807  10.065
39724SOL    HW121179  10.300   3.791   9.971
39724SOL    HW221180  10.306   3.720  10.104
39725SOL     OW21181  10.732   4.885  10.184
39725SOL    HW121182  10.685   4.802  10.197
39725SOL    HW221183  10.725   4.898  10.088
39726SOL     OW21184  10.777   4.326  10.296
39726SOL    HW121185  10.726   4.244  10.294
39726SOL    HW221186  10.865   4.297  10.324
39727SOL     OW21187  11.100   4.545   9.689
39727SOL    HW121188   0.051   4.499   9.758
39727SOL    HW221189  11.100   4.475   9.620
39728SOL     OW21190   9.806   5.150   9.423
39728SOL    HW121191   9.729   5.135   9.480
39728SOL    HW221192   9.784   5.099   9.344
39729SOL     OW21193  10.708   4.321   9.385
39729SOL    HW121194  10.656   4.284   9.460
39729SOL    HW221195  10.799   4.302   9.412
39730SOL     OW21196   9.810   3.954   9.617
39730SOL    HW121197   9.866   3.930   9.541
39730SOL    HW221198   9.781   4.044   9.590
39731SOL     OW21199  11.033   4.951  10.881
39731SOL    HW121200   0.029   4.943  10.880
39731SOL    HW221201  11.016   5.031  10.932
39732SOL     OW21202  10.350   5.086  10.686
39732SOL    HW121203  10.272   5.035  10.713
39732SOL    HW221204  10.425   5.027  10.706
39733SOL     OW21205  10.435   4.971  10.431
39733SOL    HW121206  10.347   4.967  10.471
39733SOL    HW221207  10.416   4.998  10.340
39734SOL     OW21208  10.928   4.804  10.402
39734SOL    HW121209  10.919   4.863  10.480
39734SOL    HW221210  10.859   4.841  10.345
39735SOL     OW21211  10.256   3.841  10.666
39735SOL    HW121212  10.260   3.929  10.626
39735SOL    HW221213  10.326   3.849  10.733
39736SOL     OW21214  10.011   4.779   9.661
39736SOL    HW121215  10.011   4.763   9.756
39736SOL    HW221216  10.091   4.729   9.633
39737SOL     OW21217   9.736   4.540  10.592
39737SOL    HW121218   9.806   4.543  10.660
39737SOL    HW221219   9.699   4.450  10.604
39738SOL     OW21220  10.595   4.097  10.601
39738SOL    HW121221  10.623   4.184  10.637
39738SOL    HW221222  10.516   4.120  10.552
39739SOL     OW21223   9.385   5.291  10.645
39739SOL    HW121224   9.366   5.381  10.618
39739SOL    HW221225   9.482   5.288  10.651
39740SOL     OW21226   9.681   4.826   9.813
39740SOL    HW121227   9.693   4.894   9.746
39740SOL    HW221228   9.669   4.746   9.760
39741SOL     OW21229   9.848   4.262  10.152
39741SOL    HW121230   9.875   4.326  10.083
39741SOL    HW221231   9.913   4.278  10.222
39742SOL     OW21232  10.558   5.108   9.680
39742SOL    HW121233  10.614   5.171   9.728
39742SOL    HW221234  10.471   5.128   9.720
39743SOL     OW21235  10.608   5.189  10.470
39743SOL    HW121236  10.664   5.186  10.550
39743SOL    HW221237  10.544   5.117  10.484
39744SOL     OW21238  10.885   4.353   9.786
39744SOL    HW121239  10.830   4.410   9.841
39744SOL    HW221240  10.952   4.413   9.751
39745SOL     OW21241   9.655   5.226  10.635
39745SOL    HW121242   9.639   5.198  10.542
39745SOL    HW221243   9.752   5.243  10.633
39746SOL     OW21244   9.761   4.445  10.938
39746SOL    HW121245   9.820   4.487  10.873
39746SOL    HW221246   9.765   4.352  10.912
39747SOL     OW21247  10.945   4.477  11.012
39747SOL    HW121248  10.853   4.497  10.996
39747SOL    HW221249  10.990   4.535  10.948
39748SOL     OW21250   9.868   4.601  10.360
39748SOL    HW121251   9.911   4.688  10.361
39748SOL    HW221252   9.829   4.595  10.450
39749SOL     OW21253  10.673   4.592  10.355
39749SOL    HW121254  10.594   4.563  10.308
39749SOL    HW221255  10.726   4.510  10.355
39750SOL     OW21256  10.525   4.251   9.588
39750SOL    HW121257  10.527   4.174   9.648
39750SOL    HW221258  10.462   4.311   9.632
39751SOL     OW21259   9.604   3.933  10.546
39751SOL    HW121260   9.558   3.964  10.626
39751SOL    HW221261   9.587   3.837  10.549
39752SOL     OW21262   9.353   5.009  10.596
39752SOL    HW121263   9.386   4.961  10.675
39752SOL    HW221264   9.352   5.102  10.626
39753SOL     OW21265  10.022   4.367  10.345
39753SOL    HW121266  10.098   4.368  10.284
39753SOL    HW221267   9.977   4.452  10.326
39754SOL     OW21268   9.613   3.787   9.923
39754SOL    HW121269   9.584   3.877   9.947
39754SOL    HW221270   9.616   3.743  10.010
39755SOL     OW21271  10.918   4.110   9.658
39755SOL    HW121272  10.960   4.048   9.719
39755SOL    HW221273  10.896   4.185   9.716
39756SOL     OW21274  10.358   4.479  10.264
39756SOL    HW121275  10.347   4.498  10.359
39756SOL    HW221276  10.326   4.386  10.259
39757SOL     OW21277  10.301   5.286  10.975
39757SOL    HW121278  10.295   5.350  10.901
39757SOL    HW221279  10.276   5.204  10.930
39758SOL     OW21280   9.683   4.648  11.078
39758SOL    HW121281   9.759   4.659   0.036
39758SOL    HW221282   9.709   4.566  11.030
39759SOL     OW21283  10.798   3.992   9.440
39759SOL    HW121284  10.739   3.927   9.481
39759SOL    HW221285  10.848   4.027   9.516
39760SOL     OW21286  10.614   4.570   9.340
39760SOL    HW121287  10.653   4.481   9.350
39760SOL    HW221288  10.647   4.598   9.253
39761SOL     OW21289  10.383   5.084  10.167
39761SOL    HW121290  10.387   5.006  10.106
39761SOL    HW221291  10.448   5.146  10.128
39762SOL     OW21292   9.604   4.534  10.306
39762SOL    HW121293   9.700   4.549  10.316
39762SOL    HW221294   9.600   4.438  10.318
39763SOL     OW21295   9.638   4.254  10.315
39763SOL    HW121296   9.604   4.165  10.294
39763SOL    HW221297   9.705   4.265  10.244
39764SOL     OW21298  10.485   3.926  10.785
39764SOL    HW121299  10.502   3.989  10.855
39764SOL    HW221300  10.515   3.976  10.706
39765SOL     OW21301   9.312   5.040   9.492
39765SOL    HW121302   9.218   5.052   9.464
39765SOL    HW221303   9.310   4.952   9.534
39766SOL     OW21304   9.405   5.511  10.247
39766SOL    HW121305   9.376   5.438  10.188
39766SOL    HW221306   9.497   5.525  10.218
39767SOL     OW21307   9.798   5.309  10.249
39767SOL    HW121308   9.868   5.367  10.285
39767SOL    HW221309   9.849   5.251  10.189
39768SOL     OW21310  10.299   4.501  10.529
39768SOL    HW121311  10.351   4.480  10.608
39768SOL    HW221312  10.211   4.478  10.560
39769SOL     OW21313   9.341   4.231  10.433
39769SOL    HW121314   9.423   4.235  10.382
39769SOL    HW221315   9.373   4.225  10.524
39770SOL     OW21316  10.105   4.275   9.708
39770SOL    HW121317  10.121   4.213   9.635
39770SOL    HW221318  10.037   4.333   9.671
39771SOL     OW21319   9.541   5.272  11.028
39771SOL    HW121320   9.487   5.300   0.003
39771SOL    HW221321   9.591   5.198  11.065
39772SOL     OW21322  10.015   4.195  10.568
39772SOL    HW121323   9.962   4.121  10.537
39772SOL    HW221324  10.002   4.262  10.498
39773SOL     OW21325  10.258   5.417  10.739
39773SOL    HW121326  10.230   5.381  10.653
39773SOL    HW221327  10.243   5.513  10.731
39774SOL     OW21328   9.749   4.195   9.506
39774SOL    HW121329   9.815   4.265   9.517
39774SOL    HW221330   9.667   4.247   9.501
39775SOL     OW21331   9.460   4.872  10.794
39775SOL    HW121332   9.454   4.816  10.875
39775SOL    HW221333   9.481   4.805  10.725
39776SOL     OW21334  10.613   4.788  10.542
39776SOL    HW121335  10.636   4.723  10.473
39776SOL    HW221336  10.552   4.848  10.496
39777SOL     OW21337  10.618   4.581   9.612
39777SOL    HW121338  10.535   4.547   9.647
39777SOL    HW221339  10.602   4.584   9.516
39778SOL     OW21340  11.044   5.481  10.437
39778SOL    HW121341   0.018   5.501  10.378
39778SOL    HW221342  11.029   5.386  10.422
39779SOL     OW21343  10.563   5.453  10.425
39779SOL    HW121344  10.652   5.473  10.391
39779SOL    HW221345  10.566   5.356  10.433
39780SOL     OW21346   9.425   4.970  10.341
39780SOL    HW121347   9.403   4.987  10.435
39780SOL    HW221348   9.339   4.944  10.306
39781SOL     OW21349  11.047   3.858   9.863
39781SOL    HW121350  11.096   3.859   9.778
39781SOL    HW221351  11.042   3.763   9.884
39782SOL     OW21352  10.691   5.310   9.809
39782SOL    HW121353  10.743   5.331   9.729
39782SOL    HW221354  10.636   5.389   9.823
39783SOL     OW21355  10.563   4.656   9.996
39783SOL    HW121356  10.639   4.596  10.008
39783SOL    HW221357  10.602   4.724   9.937
39784SOL     OW21358  10.107   4.975  10.752
39784SOL    HW121359  10.085   5.017  10.837
39784SOL    HW221360  10.032   5.002  10.697
39785SOL     OW21361   9.982   5.344   9.468
39785SOL    HW121362   9.997   5.363   9.374
39785SOL    HW221363   9.924   5.266   9.461
39786SOL     OW21364   9.557   4.039  10.005
39786SOL    HW121365   9.470   4.082   9.992
39786SOL    HW221366   9.569   4.043  10.101
39787SOL     OW21367  10.516   5.364   9.336
39787SOL    HW121368  10.516   5.268   9.351
39787SOL    HW221369  10.456   5.374   9.260
39788SOL     OW21370  10.134   4.714  10.695
39788SOL    HW121371  10.169   4.718  10.605
39788SOL    HW221372  10.136   4.808  10.722
39789SOL     OW21373  10.225   4.643   9.579
39789SOL    HW121374  10.300   4.680   9.529
39789SOL    HW221375  10.263   4.563   9.618
39790SOL     OW21376  10.837   5.359   9.340
39790SOL    HW121377  10.741   5.359   9.330
39790SOL    HW221378  10.868   5.355   9.247
39791SOL     OW21379   9.685   5.009  10.796
39791SOL    HW121380   9.663   5.080  10.734
39791SOL    HW221381   9.603   4.957  10.796
39792SOL     OW21382  10.889   4.995  10.589
39792SOL    HW121383  10.970   4.996  10.642
39792SOL    HW221384  10.843   5.074  10.624
39793SOL     OW21385  10.374   4.844  10.054
39793SOL    HW121386  10.294   4.792  10.073
39793SOL    HW221387  10.437   4.774  10.032
39794SOL     OW21388  10.336   3.965  10.281
39794SOL    HW121389  10.320   3.931  10.191
39794SOL    HW221390  10.327   3.884  10.331
39795SOL     OW21391   9.929   5.205   9.805
39795SOL    HW121392   9.986   5.174   9.734
39795SOL    HW221393   9.862   5.256   9.757
39796SOL     OW21394   9.563   5.102   9.579
39796SOL    HW121395   9.467   5.093   9.567
39796SOL    HW221396   9.568   5.120   9.676
39797SOL     OW21397   9.441   4.734  11.016
39797SOL    HW121398   9.375   4.712  11.083
39797SOL    HW221399   9.525   4.704  11.057
39798SOL     OW21400   9.973   3.921  10.784
39798SOL    HW121401  10.056   3.925  10.734
39798SOL    HW221402  10.004   3.942  10.874
39799SOL     OW21403   9.408   4.055   9.326
39799SOL    HW121404   9.312   4.063   9.317
39799SOL    HW221405   9.439   4.135   9.279
39800SOL     OW21406  10.730   4.577  10.730
39800SOL    HW121407  10.674   4.638  10.681
39800SOL    HW221408  10.818   4.609  10.706
39801SOL     OW21409   9.356   3.886   9.609
39801SOL    HW121410   9.357   3.976   9.572
39801SOL    HW221411   9.437   3.848   9.570
39802SOL     OW21412  10.511   5.066   9.417
39802SOL    HW121413  10.419   5.037   9.423
39802SOL    HW221414  10.533   5.084   9.511
39803SOL     OW21415   9.942   4.542  10.763
39803SOL    HW121416  10.003   4.616  10.743
39803SOL    HW221417  10.005   4.469  10.776
39804SOL     OW21418  10.808   5.495  10.304
39804SOL    HW121419  10.836   5.522  10.215
39804SOL    HW221420  10.891   5.500  10.353
39805SOL     OW21421  10.032   4.280  11.025
39805SOL    HW121422  10.048   4.360  11.080
39805SOL    HW221423  10.107   4.225  11.052
39806SOL     OW21424   9.679   5.450  10.875
39806SOL    HW121425   9.603   5.506  10.853
39806SOL    HW221426   9.637   5.382  10.932
39807SOL     OW21427  11.004   4.597  10.546
39807SOL    HW121428  10.993   4.523  10.484
39807SOL    HW221429  10.972   4.673  10.493
39808SOL     OW21430  10.504   4.037   9.776
39808SOL    HW121431  10.574   3.973   9.759
39808SOL    HW221432  10.542   4.086   9.853
39809SOL     OW21433   9.912   4.469   9.970
39809SOL    HW121434   9.939   4.562   9.958
39809SOL    HW221435   9.839   4.461   9.907
39810SOL     OW21436  11.043   4.096  10.905
39810SOL    HW121437  11.044   4.176  10.850
39810SOL    HW221438  10.977   4.116  10.972
39811SOL     OW21439  11.058   4.650  10.813
39811SOL    HW121440  11.042   4.746  10.814
39811SOL    HW221441  11.049   4.627  10.719
39812SOL     OW21442  10.172   5.088   9.348
39812SOL    HW121443  10.147   5.115   9.438
39812SOL    HW221444  10.195   5.171   9.305
39813SOL     OW21445   9.977   5.526  10.266
39813SOL    HW121446   9.946   5.613  10.235
39813SOL    HW221447  10.063   5.517  10.223
39814SOL     OW21448  10.189   4.672  10.165
39814SOL    HW121449  10.243   4.597  10.198
39814SOL    HW221450  10.165   4.720  10.246
39815SOL     OW21451  10.414   4.733   9.413
39815SOL    HW121452  10.382   4.777   9.333
39815SOL    HW221453  10.488   4.680   9.378
39816SOL     OW21454   0.057   5.269  10.157
39816SOL    HW121455  11.085   5.246  10.098
39816SOL    HW221456   0.060   5.192  10.215
39817SOL     OW21457   9.397   4.977   9.993
39817SOL    HW121458   9.392   4.911  10.063
39817SOL    HW221459   9.475   4.947   9.944
39818SOL     OW21460   9.998   5.137  10.945
39818SOL    HW121461   9.927   5.086  10.987
39818SOL    HW221462   9.954   5.221  10.928
39819SOL     OW21463   0.002   3.894  10.557
39819SOL    HW121464  11.080   3.800  10.547
39819SOL    HW221465  11.081   3.931  10.471
39820SOL     OW21466   9.753   4.148   9.837
39820SOL    HW121467   9.790   4.072   9.790
39820SOL    HW221468   9.697   4.108   9.905
39821SOL     OW21469  10.995   5.218  10.422
39821SOL    HW121470  10.921   5.181  10.373
39821SOL    HW221471  11.018   5.149  10.485
39822SOL     OW21472   9.647   4.280  10.600
39822SOL    HW121473   9.697   4.216  10.656
39822SOL    HW221474   9.659   4.246  10.510
39823SOL     OW21475  10.140   5.316   9.988
39823SOL    HW121476  10.135   5.392   9.926
39823SOL    HW221477  10.052   5.277   9.980
39824SOL     OW21478  10.714   3.927  10.426
39824SOL    HW121479  10.772   3.861  10.465
39824SOL    HW221480  10.689   3.983  10.502
39825SOL     OW21481  10.099   5.073   9.625
39825SOL    HW121482  10.056   4.986   9.621
39825SOL    HW221483  10.175   5.056   9.681
39826SOL     OW21484   9.912   5.283  10.592
39826SOL    HW121485   9.915   5.368  10.642
39826SOL    HW221486   9.997   5.286  10.546
39827SOL     OW21487  10.655   3.769   9.510
39827SOL    HW121488  10.670   3.716   9.431
39827SOL    HW221489  10.570   3.733   9.542
39828SOL     OW21490  10.595   4.180   9.979
39828SOL    HW121491  10.548   4.265   9.979
39828SOL    HW221492  10.587   4.149  10.071
39829SOL     OW21493  10.912   3.931  10.215
39829SOL    HW121494  10.830   3.926  10.265
39829SOL    HW221495  10.883   3.963  10.130
39830SOL     OW21496   9.349   4.796   9.620
39830SOL    HW121497   9.443   4.786   9.595
39830SOL    HW221498   9.325   4.703   9.638
39831SOL     OW21499  10.196   5.369   9.639
39831SOL    HW121500  10.117   5.353   9.584
39831SOL    HW221501  10.163   5.437   9.703
39832SOL     OW21502   9.549   6.235   0.146
39832SOL    HW121503   9.460   6.212   0.177
39832SOL    HW221504   9.542   6.232   0.050
39833SOL     OW21505   9.542   5.860   1.007
39833SOL    HW121506   9.570   5.844   1.099
39833SOL    HW221507   9.453   5.821   1.005
39834SOL     OW21508   9.309   5.992   0.633
39834SOL    HW121509   9.229   6.018   0.683
39834SOL    HW221510   9.281   5.908   0.596
39835SOL     OW21511   9.873   6.879   1.188
39835SOL    HW121512   9.778   6.865   1.172
39835SOL    HW221513   9.876   6.973   1.210
39836SOL     OW21514  10.883   7.114   0.716
39836SOL    HW121515  10.846   7.074   0.796
39836SOL    HW221516  10.818   7.090   0.648
39837SOL     OW21517  10.436   6.295   0.703
39837SOL    HW121518  10.474   6.384   0.695
39837SOL    HW221519  10.407   6.295   0.795
39838SOL     OW21520  11.095   6.195   0.217
39838SOL    HW121521  11.037   6.215   0.142
39838SOL    HW221522  11.051   6.117   0.256
39839SOL     OW21523  10.041   6.745   1.021
39839SOL    HW121524   9.982   6.791   1.084
39839SOL    HW221525  10.080   6.820   0.974
39840SOL     OW21526  10.197   6.339   1.815
39840SOL    HW121527  10.157   6.397   1.881
39840SOL    HW221528  10.203   6.397   1.736
39841SOL     OW21529  10.009   6.622   0.643
39841SOL    HW121530  10.063   6.588   0.716
39841SOL    HW221531   9.930   6.654   0.689
39842SOL     OW21532  10.010   6.744   1.802
39842SOL    HW121533  10.057   6.824   1.834
39842SOL    HW221534   9.926   6.780   1.770
39843SOL     OW21535   9.629   7.012   1.074
39843SOL    HW121536   9.555   6.958   1.041
39843SOL    HW221537   9.669   7.049   0.994
39844SOL     OW21538  10.774   7.095   1.396
39844SOL    HW121539  10.769   7.188   1.372
39844SOL    HW221540  10.688   7.084   1.441
39845SOL     OW21541   9.745   5.973   1.567
39845SOL    HW121542   9.823   5.929   1.531
39845SOL    HW221543   9.706   6.011   1.485
39846SOL     OW21544   9.563   7.328   0.513
39846SOL    HW121545   9.650   7.371   0.514
39846SOL    HW221546   9.558   7.300   0.421
39847SOL     OW21547  10.440   6.930   1.678
39847SOL    HW121548  10.470   6.925   1.770
39847SOL    HW221549  10.390   6.846   1.671
39848SOL     OW21550   9.549   7.022   0.523
39848SOL    HW121551   9.551   7.113   0.554
39848SOL    HW221552   9.489   6.978   0.586
39849SOL     OW21553   9.577   6.679   0.903
39849SOL    HW121554   9.574   6.600   0.959
39849SOL    HW221555   9.524   6.742   0.955
39850SOL     OW21556   9.904   7.383   1.406
39850SOL    HW121557   9.830   7.352   1.462
39850SOL    HW221558   9.926   7.468   1.447
39851SOL     OW21559   9.888   6.581   0.148
39851SOL    HW121560   9.934   6.638   0.086
39851SOL    HW221561   9.924   6.613   0.234
39852SOL     OW21562  10.937   5.670   1.497
39852SOL    HW121563  10.904   5.733   1.432
39852SOL    HW221564  10.918   5.715   1.580
39853SOL     OW21565   9.426   6.245   0.556
39853SOL    HW121566   9.401   6.153   0.575
39853SOL    HW221567   9.422   6.287   0.645
39854SOL     OW21568   9.392   7.180   0.132
39854SOL    HW121569   9.361   7.090   0.154
39854SOL    HW221570   9.348   7.233   0.199
39855SOL     OW21571  10.982   6.544   0.649
39855SOL    HW121572  11.053   6.486   0.618
39855SOL    HW221573  10.986   6.616   0.585
39856SOL     OW21574   9.433   6.337   1.587
39856SOL    HW121575   9.529   6.348   1.576
39856SOL    HW221576   9.410   6.420   1.632
39857SOL     OW21577   9.889   6.987   0.746
39857SOL    HW121578   9.863   6.893   0.755
39857SOL    HW221579   9.883   6.997   0.649
39858SOL     OW21580  10.603   6.834   1.428
39858SOL    HW121581  10.620   6.764   1.362
39858SOL    HW221582  10.670   6.814   1.497
39859SOL     OW21583  10.146   5.607   0.457
39859SOL    HW121584  10.178   5.698   0.466
39859SOL    HW221585  10.050   5.617   0.475
39860SOL     OW21586   9.498   6.563   1.252
39860SOL    HW121587   9.586   6.521   1.248
39860SOL    HW221588   9.440   6.495   1.216
39861SOL     OW21589  10.865   6.599   0.208
39861SOL    HW121590  10.788   6.545   0.229
39861SOL    HW221591  10.923   6.580   0.282
39862SOL     OW21592  10.495   7.388   1.598
39862SOL    HW121593  10.479   7.451   1.526
39862SOL    HW221594  10.501   7.303   1.551
39863SOL     OW21595   9.647   5.812   1.800
39863SOL    HW121596   9.686   5.881   1.745
39863SOL    HW221597   9.573   5.859   1.843
39864SOL     OW21598  10.760   7.015   0.945
39864SOL    HW121599  10.703   7.035   1.022
39864SOL    HW221600  10.739   6.921   0.930
39865SOL     OW21601  10.988   7.314   0.581
39865SOL    HW121602  10.947   7.281   0.500
39865SOL    HW221603  10.965   7.245   0.645
39866SOL     OW21604   9.892   6.303   0.258
39866SOL    HW121605   9.904   6.389   0.215
39866SOL    HW221606   9.833   6.322   0.332
39867SOL     OW21607  10.584   5.945   0.907
39867SOL    HW121608  10.494   5.912   0.925
39867SOL    HW221609  10.636   5.893   0.972
39868SOL     OW21610  10.876   7.241   0.328
39868SOL    HW121611  10.967   7.258   0.304
39868SOL    HW221612  10.836   7.233   0.238
39869SOL     OW21613  10.109   6.204   1.473
39869SOL    HW121614  10.086   6.165   1.561
39869SOL    HW221615  10.057   6.148   1.412
39870SOL     OW21616  10.691   6.070   1.671
39870SOL    HW121617  10.693   6.131   1.747
39870SOL    HW221618  10.743   5.995   1.705
39871SOL     OW21619  10.258   6.479   1.590
39871SOL    HW121620  10.300   6.398   1.555
39871SOL    HW221621  10.209   6.510   1.511
39872SOL     OW21622  10.323   5.987   1.256
39872SOL    HW121623  10.233   6.007   1.286
39872SOL    HW221624  10.307   5.942   1.172
39873SOL     OW21625  10.353   6.269   0.418
39873SOL    HW121626  10.365   6.281   0.514
39873SOL    HW221627  10.268   6.222   0.413
39874SOL     OW21628   9.425   6.400   0.776
39874SOL    HW121629   9.492   6.390   0.846
39874SOL    HW221630   9.372   6.473   0.812
39875SOL     OW21631   9.415   7.419   1.556
39875SOL    HW121632   9.431   7.408   1.653
39875SOL    HW221633   9.319   7.422   1.553
39876SOL     OW21634  10.203   5.949   0.217
39876SOL    HW121635  10.246   6.003   0.147
39876SOL    HW221636  10.211   5.858   0.182
39877SOL     OW21637  11.015   6.175   1.831
39877SOL    HW121638  10.978   6.245   1.773
39877SOL    HW221639  11.056   6.117   1.766
39878SOL     OW21640  10.688   6.757   0.579
39878SOL    HW121641  10.743   6.748   0.500
39878SOL    HW221642  10.620   6.817   0.545
39879SOL     OW21643   9.849   5.785   0.891
39879SOL    HW121644   9.859   5.794   0.989
39879SOL    HW221645   9.835   5.877   0.864
39880SOL     OW21646  10.325   7.024   0.487
39880SOL    HW121647  10.288   7.094   0.430
39880SOL    HW221648  10.318   7.062   0.575
39881SOL     OW21649  11.093   6.614   0.895
39881SOL    HW121650  11.039   6.626   0.815
39881SOL    HW221651  11.026   6.610   0.966
39882SOL     OW21652  10.529   7.123   1.496
39882SOL    HW121653  10.509   7.055   1.564
39882SOL    HW221654  10.471   7.093   1.424
39883SOL     OW21655   9.634   6.550   0.271
39883SOL    HW121656   9.716   6.560   0.222
39883SOL    HW221657   9.607   6.460   0.251
39884SOL     OW21658  10.794   6.328   0.690
39884SOL    HW121659  10.768   6.290   0.775
39884SOL    HW221660  10.855   6.399   0.712
39885SOL     OW21661   9.777   6.857   1.722
39885SOL    HW121662   9.731   6.866   1.635
39885SOL    HW221663   9.699   6.859   1.781
39886SOL     OW21664  10.394   7.354   0.215
39886SOL    HW121665  10.339   7.295   0.270
39886SOL    HW221666  10.435   7.292   0.152
39887SOL     OW21667   9.471   5.867   1.479
39887SOL    HW121668   9.415   5.936   1.517
39887SOL    HW221669   9.492   5.811   1.554
39888SOL     OW21670   9.780   7.325   0.298
39888SOL    HW121671   9.821   7.377   0.369
39888SOL    HW221672   9.851   7.321   0.233
39889SOL     OW21673  10.730   5.699   0.460
39889SOL    HW121674  10.710   5.676   0.367
39889SOL    HW221675  10.827   5.699   0.462
39890SOL     OW21676   9.565   7.391   1.219
39890SOL    HW121677   9.605   7.338   1.289
39890SOL    HW221678   9.537   7.325   1.155
39891SOL     OW21679  10.280   7.290   0.876
39891SOL    HW121680  10.369   7.251   0.883
39891SOL    HW221681  10.237   7.231   0.812
39892SOL     OW21682   9.688   6.283   0.472
39892SOL    HW121683   9.699   6.186   0.479
39892SOL    HW221684   9.595   6.292   0.499
39893SOL     OW21685  10.845   5.812   1.730
39893SOL    HW121686  10.837   5.830   1.827
39893SOL    HW221687  10.778   5.743   1.720
39894SOL     OW21688   9.936   5.693   0.105
39894SOL    HW121689  10.029   5.676   0.128
39894SOL    HW221690   9.932   5.668   0.012
39895SOL     OW21691  10.076   5.838   1.738
39895SOL    HW121692  10.150   5.776   1.749
39895SOL    HW221693  10.018   5.817   1.813
39896SOL     OW21694  10.196   7.139   1.183
39896SOL    HW121695  10.183   7.101   1.095
39896SOL    HW221696  10.253   7.074   1.228
39897SOL     OW21697  10.657   6.172   1.413
39897SOL    HW121698  10.674   6.146   1.505
39897SOL    HW221699  10.674   6.268   1.414
39898SOL     OW21700  10.119   6.996   0.925
39898SOL    HW121701  10.208   6.980   0.888
39898SOL    HW221702  10.064   7.003   0.846
39899SOL     OW21703  10.248   6.109   0.892
39899SOL    HW121704  10.223   6.092   0.798
39899SOL    HW221705  10.251   6.019   0.926
39900SOL     OW21706   9.879   5.642   0.490
39900SOL    HW121707   9.806   5.654   0.554
39900SOL    HW221708   9.859   5.715   0.427
39901SOL     OW21709  10.739   6.755  11.094
39901SOL    HW121710  10.778   6.696   0.059
39901SOL    HW221711  10.684   6.814   0.046
39902SOL     OW21712   9.589   5.643   0.216
39902SOL    HW121713   9.620   5.693   0.138
39902SOL    HW221714   9.663   5.581   0.231
39903SOL     OW21715  10.261   5.854   0.466
39903SOL    HW121716  10.245   5.895   0.379
39903SOL    HW221717  10.357   5.866   0.477
39904SOL     OW21718  10.369   6.256   1.466
39904SOL    HW121719  10.283   6.211   1.471
39904SOL    HW221720  10.432   6.183   1.471
39905SOL     OW21721  10.545   7.185   0.792
39905SOL    HW121722  10.565   7.248   0.721
39905SOL    HW221723  10.633   7.166   0.828
39906SOL     OW21724   9.784   6.734   0.738
39906SOL    HW121725   9.713   6.708   0.800
39906SOL    HW221726   9.740   6.714   0.652
39907SOL     OW21727  10.585   7.411   0.611
39907SOL    HW121728  10.643   7.465   0.553
39907SOL    HW221729  10.567   7.471   0.684
39908SOL     OW21730  10.315   6.110   0.037
39908SOL    HW121731  10.272   6.196   0.023
39908SOL    HW221732  10.402   6.137   0.071
39909SOL     OW21733   9.348   6.150   1.403
39909SOL    HW121734   9.443   6.139   1.382
39909SOL    HW221735   9.351   6.230   1.459
39910SOL     OW21736   9.878   5.795   1.159
39910SOL    HW121737   9.923   5.757   1.235
39910SOL    HW221738   9.786   5.801   1.191
39911SOL     OW21739  10.187   6.037   0.647
39911SOL    HW121740  10.133   6.093   0.589
39911SOL    HW221741  10.207   5.963   0.588
39912SOL     OW21742  10.380   5.652   0.759
39912SOL    HW121743  10.318   5.675   0.689
39912SOL    HW221744  10.340   5.571   0.797
39913SOL     OW21745  10.734   6.744   0.885
39913SOL    HW121746  10.672   6.672   0.898
39913SOL    HW221747  10.729   6.758   0.789
39914SOL     OW21748  10.763   6.164   1.016
39914SOL    HW121749  10.701   6.101   0.977
39914SOL    HW221750  10.781   6.122   1.101
39915SOL     OW21751   0.013   6.420   0.382
39915SOL    HW121752   0.063   6.370   0.449
39915SOL    HW221753   0.021   6.360   0.307
39916SOL     OW21754   9.810   7.019   0.144
39916SOL    HW121755   9.729   7.002   0.195
39916SOL    HW221756   9.800   6.957   0.070
39917SOL     OW21757  10.686   6.189   0.069
39917SOL    HW121758  10.645   6.163   0.153
39917SOL    HW221759  10.751   6.120   0.057
39918SOL     OW21760   9.812   5.818   0.312
39918SOL    HW121761   9.844   5.777   0.230
39918SOL    HW221762   9.781   5.904   0.278
39919SOL     OW21763  11.050   6.833   1.614
39919SOL    HW121764   0.027   6.787   1.580
39919SOL    HW221765  11.089   6.889   1.682
39920SOL     OW21766  10.370   6.946   1.330
39920SOL    HW121767  10.292   6.911   1.375
39920SOL    HW221768  10.443   6.898   1.376
39921SOL     OW21769  10.979   7.206   1.617
39921SOL    HW121770  10.946   7.197   1.526
39921SOL    HW221771  10.975   7.115   1.648
39922SOL     OW21772  10.449   6.801   1.098
39922SOL    HW121773  10.372   6.827   1.151
39922SOL    HW221774  10.425   6.834   1.010
39923SOL     OW21775  10.916   6.678   1.099
39923SOL    HW121776  10.900   6.748   1.166
39923SOL    HW221777  10.852   6.703   1.031
39924SOL     OW21778  10.232   5.669   1.403
39924SOL    HW121779  10.262   5.648   1.312
39924SOL    HW221780  10.308   5.719   1.438
39925SOL     OW21781  10.309   6.699   1.737
39925SOL    HW121782  10.220   6.727   1.763
39925SOL    HW221783  10.292   6.619   1.683
39926SOL     OW21784  10.025   6.659   0.381
39926SOL    HW121785  10.021   6.645   0.479
39926SOL    HW221786  10.098   6.599   0.356
39927SOL     OW21787   9.736   6.405   1.256
39927SOL    HW121788   9.804   6.395   1.325
39927SOL    HW221789   9.692   6.317   1.260
39928SOL     OW21790  10.595   5.967   1.263
39928SOL    HW121791  10.618   6.046   1.317
39928SOL    HW221792  10.498   5.981   1.251
39929SOL     OW21793   9.376   7.157   1.339
39929SOL    HW121794   9.367   7.253   1.339
39929SOL    HW221795   9.473   7.144   1.336
39930SOL     OW21796   9.662   6.688   0.504
39930SOL    HW121797   9.661   6.762   0.441
39930SOL    HW221798   9.653   6.613   0.443
39931SOL     OW21799   9.849   6.119   0.871
39931SOL    HW121800   9.882   6.177   0.800
39931SOL    HW221801   9.910   6.138   0.944
39932SOL     OW21802  10.555   6.934   0.392
39932SOL    HW121803  10.601   7.014   0.422
39932SOL    HW221804  10.464   6.953   0.422
39933SOL     OW21805  10.610   7.059   1.169
39933SOL    HW121806  10.674   7.041   1.240
39933SOL    HW221807  10.541   6.992   1.185
39934SOL     OW21808  10.899   6.205   0.454
39934SOL    HW121809  10.842   6.236   0.527
39934SOL    HW221810  10.955   6.282   0.439
39935SOL     OW21811   9.641   7.104   1.324
39935SOL    HW121812   9.631   7.064   1.235
39935SOL    HW221813   9.736   7.127   1.322
39936SOL     OW21814   9.752   6.311   1.636
39936SOL    HW121815   9.797   6.355   1.562
39936SOL    HW221816   9.766   6.218   1.615
39937SOL     OW21817  10.924   6.345   1.657
39937SOL    HW121818  10.836   6.386   1.668
39937SOL    HW221819  10.965   6.408   1.595
39938SOL     OW21820  10.299   5.682   1.749
39938SOL    HW121821  10.350   5.761   1.730
39938SOL    HW221822  10.354   5.614   1.707
39939SOL     OW21823   9.813   5.598   1.754
39939SOL    HW121824   9.769   5.549   1.682
39939SOL    HW221825   9.751   5.674   1.766
39940SOL     OW21826   9.908   6.481   1.046
39940SOL    HW121827   9.928   6.575   1.047
39940SOL    HW221828   9.845   6.470   1.120
39941SOL     OW21829  10.694   6.445   1.033
39941SOL    HW121830  10.603   6.421   1.011
39941SOL    HW221831  10.736   6.358   1.032
39942SOL     OW21832  10.541   6.096   0.286
39942SOL    HW121833  10.540   6.019   0.346
39942SOL    HW221834  10.476   6.155   0.329
39943SOL     OW21835   9.626   5.779   1.250
39943SOL    HW121836   9.583   5.819   1.329
39943SOL    HW221837   9.593   5.687   1.254
39944SOL     OW21838   9.344   6.884   1.281
39944SOL    HW121839   9.373   6.822   1.352
39944SOL    HW221840   9.344   6.970   1.325
39945SOL     OW21841  10.043   6.245   1.047
39945SOL    HW121842  10.112   6.242   0.979
39945SOL    HW221843  10.000   6.332   1.034
39946SOL     OW21844   9.635   5.667   0.613
39946SOL    HW121845   9.602   5.753   0.644
39946SOL    HW221846   9.634   5.615   0.695
39947SOL     OW21847  10.919   5.973   0.321
39947SOL    HW121848  10.941   5.911   0.392
39947SOL    HW221849  10.898   6.055   0.371
39948SOL     OW21850  10.380   6.322   0.974
39948SOL    HW121851  10.352   6.334   1.068
39948SOL    HW221852  10.335   6.239   0.950
39949SOL     OW21853  10.287   7.152   1.706
39949SOL    HW121854  10.277   7.199   1.620
39949SOL    HW221855  10.319   7.065   1.677
39950SOL     OW21856   9.651   6.485   1.804
39950SOL    HW121857   9.728   6.522   1.849
39950SOL    HW221858   9.690   6.409   1.754
39951SOL     OW21859  10.878   5.882   0.078
39951SOL    HW121860  10.804   5.824   0.096
39951SOL    HW221861  10.896   5.916   0.169
39952SOL     OW21862  10.634   6.442  11.098
39952SOL    HW121863  10.657   6.350   0.022
39952SOL    HW221864  10.635   6.437  11.001
39953SOL     OW21865  10.380   6.941   0.853
39953SOL    HW121866  10.380   6.864   0.792
39953SOL    HW221867  10.440   7.005   0.812
39954SOL     OW21868   9.587   6.396   0.995
39954SOL    HW121869   9.683   6.405   0.988
39954SOL    HW221870   9.578   6.299   1.006
39955SOL     OW21871   9.591   6.125   0.963
39955SOL    HW121872   9.587   6.032   0.992
39955SOL    HW221873   9.681   6.129   0.925
39956SOL     OW21874  10.448   5.952   1.675
39956SOL    HW121875  10.396   6.000   1.742
39956SOL    HW221876  10.535   5.997   1.680
39957SOL     OW21877  10.480   5.778   1.467
39957SOL    HW121878  10.477   5.845   1.538
39957SOL    HW221879  10.509   5.830   1.391
39958SOL     OW21880   9.307   6.930   0.217
39958SOL    HW121881   9.221   6.938   0.170
39958SOL    HW221882   9.319   6.833   0.220
39959SOL     OW21883   9.403   7.357   0.935
39959SOL    HW121884   9.370   7.275   0.892
39959SOL    HW221885   9.444   7.403   0.861
39960SOL     OW21886   9.790   7.182   0.899
39960SOL    HW121887   9.872   7.191   0.949
39960SOL    HW221888   9.813   7.108   0.839
39961SOL     OW21889  10.302   6.364   1.226
39961SOL    HW121890  10.347   6.336   1.308
39961SOL    HW221891  10.213   6.329   1.241
39962SOL     OW21892   9.342   6.112   1.109
39962SOL    HW121893   9.420   6.101   1.052
39962SOL    HW221894   9.384   6.112   1.196
39963SOL     OW21895   9.522   6.093   1.709
39963SOL    HW121896   9.585   6.053   1.646
39963SOL    HW221897   9.482   6.165   1.657
39964SOL     OW21898  10.707   6.507   1.652
39964SOL    HW121899  10.707   6.603   1.661
39964SOL    HW221900  10.668   6.494   1.564
39965SOL     OW21901  10.112   6.146   0.381
39965SOL    HW121902  10.130   6.074   0.318
39965SOL    HW221903  10.042   6.196   0.336
39966SOL     OW21904   9.559   7.124   1.719
39966SOL    HW121905   9.544   7.191   1.787
39966SOL    HW221906   9.564   7.042   1.773
39967SOL     OW21907  10.017   6.061   1.261
39967SOL    HW121908   9.937   6.008   1.247
39967SOL    HW221909  10.006   6.129   1.191
39968SOL     OW21910  10.244   7.279   1.467
39968SOL    HW121911  10.218   7.252   1.378
39968SOL    HW221912  10.231   7.376   1.463
39969SOL     OW21913   9.754   6.058   0.198
39969SOL    HW121914   9.816   6.133   0.205
39969SOL    HW221915   9.669   6.104   0.202
39970SOL     OW21916   9.425   6.712   1.465
39970SOL    HW121917   9.434   6.661   1.549
39970SOL    HW221918   9.449   6.645   1.398
39971SOL     OW21919  10.619   6.642   1.220
39971SOL    HW121920  10.642   6.582   1.148
39971SOL    HW221921  10.554   6.702   1.177
39972SOL     OW21922  10.630   6.464   0.294
39972SOL    HW121923  10.557   6.415   0.333
39972SOL    HW221924  10.606   6.466   0.200
39973SOL     OW21925  11.052   7.347   1.136
39973SOL    HW121926   0.020   7.363   1.069
39973SOL    HW221927  11.029   7.253   1.119
39974SOL     OW21928  10.568   7.320   1.101
39974SOL    HW121929  10.645   7.333   1.042
39974SOL    HW221930  10.578   7.226   1.125
39975SOL     OW21931   9.412   6.846   1.029
39975SOL    HW121932   9.377   6.856   1.121
39975SOL    HW221933   9.344   6.791   0.988
39976SOL     OW21934  10.006   7.228   1.738
39976SOL    HW121935   9.961   7.313   1.727
39976SOL    HW221936  10.097   7.247   1.713
39977SOL     OW21937  10.215   5.695   0.137
39977SOL    HW121938  10.280   5.669   0.070
39977SOL    HW221939  10.239   5.631   0.206
39978SOL     OW21940  11.028   5.714   0.539
39978SOL    HW121941  11.089   5.718   0.462
39978SOL    HW221942  11.032   5.621   0.567
39979SOL     OW21943  10.687   7.161   0.506
39979SOL    HW121944  10.753   7.178   0.435
39979SOL    HW221945  10.642   7.247   0.511
39980SOL     OW21946   9.465   7.387   1.819
39980SOL    HW121947   9.416   7.317   1.868
39980SOL    HW221948   9.510   7.431   1.893
39981SOL     OW21949  10.575   6.524   0.664
39981SOL    HW121950  10.646   6.460   0.648
39981SOL    HW221951  10.610   6.602   0.616
39982SOL     OW21952  10.090   6.834   1.410
39982SOL    HW121953  10.072   6.892   1.487
39982SOL    HW221954  10.009   6.847   1.358
39983SOL     OW21955  10.007   7.202   0.166
39983SOL    HW121956  10.022   7.199   0.071
39983SOL    HW221957   9.938   7.132   0.176
39984SOL     OW21958   9.558   5.910   0.708
39984SOL    HW121959   9.471   5.950   0.688
39984SOL    HW221960   9.565   5.923   0.803
39985SOL     OW21961  10.537   7.198   0.034
39985SOL    HW121962  10.528   7.103   0.052
39985SOL    HW221963  10.478   7.211  11.059
39986SOL     OW21964  10.135   6.575   1.377
39986SOL    HW121965  10.173   6.586   1.289
39986SOL    HW221966  10.116   6.668   1.403
39987SOL     OW21967  10.220   6.504   0.263
39987SOL    HW121968  10.294   6.538   0.208
39987SOL    HW221969  10.260   6.426   0.303
39988SOL     OW21970  10.813   7.209   0.071
39988SOL    HW121971  10.717   7.207   0.054
39988SOL    HW221972  10.851   7.208  11.083
39989SOL     OW21973   9.648   6.867   1.493
39989SOL    HW121974   9.628   6.936   1.427
39989SOL    HW221975   9.572   6.807   1.485
39990SOL     OW21976  10.873   6.880   1.279
39990SOL    HW121977  10.952   6.863   1.333
39990SOL    HW221978  10.829   6.952   1.328
39991SOL     OW21979  10.375   6.705   0.730
39991SOL    HW121980  10.301   6.651   0.763
39991SOL    HW221981  10.439   6.637   0.702
39992SOL     OW21982  10.353   5.813   0.981
39992SOL    HW121983  10.344   5.765   0.896
39992SOL    HW221984  10.352   5.739   1.044
39993SOL     OW21985   9.918   7.071   0.486
39993SOL    HW121986   9.981   7.032   0.422
39993SOL    HW221987   9.845   7.098   0.429
39994SOL     OW21988   9.566   6.952   0.272
39994SOL    HW121989   9.472   6.949   0.246
39994SOL    HW221990   9.560   6.982   0.365
39995SOL     OW21991   9.440   6.603   1.704
39995SOL    HW121992   9.368   6.592   1.770
39995SOL    HW221993   9.517   6.564   1.752
39996SOL     OW21994   9.980   5.762   1.485
39996SOL    HW121995  10.067   5.723   1.462
39996SOL    HW221996  10.001   5.807   1.568
39997SOL     OW21997   9.425   5.961   0.001
39997SOL    HW121998   9.346   5.912  11.075
39997SOL    HW221999   9.403   6.050  11.074
39998SOL     OW22000  10.725   6.439   1.379
39998SOL    HW122001  10.678   6.501   1.321
39998SOL    HW222002  10.805   6.488   1.400
39999SOL     OW22003   9.358   5.748   0.321
39999SOL    HW122004   9.359   5.831   0.271
39999SOL    HW222005   9.449   5.715   0.303
40000SOL     OW22006  10.508   6.929   0.108
40000SOL    HW122007  10.414   6.917   0.088
40000SOL    HW222008  10.513   6.912   0.204
40001SOL     OW22009   9.929   6.395   1.438
40001SOL    HW122010   9.986   6.472   1.421
40001SOL    HW222011   9.997   6.327   1.451
40002SOL     OW22012  10.794   7.356   0.946
40002SOL    HW122013  10.830   7.386   0.861
40002SOL    HW222014  10.872   7.360   1.002
40003SOL     OW22015  10.051   6.109   1.709
40003SOL    HW122016  10.070   6.166   1.785
40003SOL    HW222017  10.062   6.019   1.742
40004SOL     OW22018  10.783   6.782   1.621
40004SOL    HW122019  10.763   6.782   1.717
40004SOL    HW222020  10.879   6.801   1.623
40005SOL     OW22021   9.674   7.312   1.550
40005SOL    HW122022   9.588   7.358   1.544
40005SOL    HW222023   9.647   7.228   1.592
40006SOL     OW22024  11.007   6.449   1.214
40006SOL    HW122025  10.938   6.385   1.196
40006SOL    HW222026  10.972   6.528   1.170
40007SOL     OW22027  10.529   5.902   0.477
40007SOL    HW122028  10.587   5.825   0.464
40007SOL    HW222029  10.576   5.955   0.544
40008SOL     OW22030   9.895   6.337   0.663
40008SOL    HW122031   9.932   6.419   0.627
40008SOL    HW222032   9.819   6.319   0.604
40009SOL     OW22033  11.057   5.966   1.631
40009SOL    HW122034  11.004   6.028   1.581
40009SOL    HW222035  10.991   5.911   1.676
40010SOL     OW22036  11.030   6.502   1.480
40010SOL    HW122037  11.040   6.598   1.477
40010SOL    HW222038  11.039   6.476   1.386
40011SOL     OW22039  10.233   6.940   0.045
40011SOL    HW122040  10.148   6.937   0.090
40011SOL    HW222041  10.231   7.028   0.003
40012SOL     OW22042   9.991   7.398   0.902
40012SOL    HW122043  10.011   7.492   0.891
40012SOL    HW222044  10.080   7.361   0.914
40013SOL     OW22045  10.191   6.541   0.849
40013SOL    HW122046  10.238   6.470   0.894
40013SOL    HW222047  10.154   6.592   0.923
40014SOL     OW22048  10.409   6.575   0.091
40014SOL    HW122049  10.388   6.644   0.028
40014SOL    HW222050  10.491   6.537   0.055
40015SOL     OW22051   0.057   7.137   0.839
40015SOL    HW122052  11.075   7.130   0.790
40015SOL    HW222053   0.069   7.047   0.872
40016SOL     OW22054   9.551   6.902   1.863
40016SOL    HW122055   9.476   6.844   1.844
40016SOL    HW222056   9.542   6.911   1.960
40017SOL     OW22057   9.411   6.823   0.652
40017SOL    HW122058   9.418   6.776   0.736
40017SOL    HW222059   9.476   6.777   0.598
40018SOL     OW22060   9.985   6.985   1.606
40018SOL    HW122061   9.915   6.929   1.645
40018SOL    HW222062   9.976   7.067   1.658
40019SOL     OW22063   0.006   5.773   1.206
40019SOL    HW122064   0.038   5.703   1.264
40019SOL    HW222065   0.033   5.745   1.118
40020SOL     OW22066   9.736   6.012   0.518
40020SOL    HW122067   9.770   5.935   0.471
40020SOL    HW222068   9.682   5.973   0.589
40021SOL     OW22069  10.978   7.099   1.104
40021SOL    HW122070  10.906   7.073   1.045
40021SOL    HW222071  11.003   7.015   1.144
40022SOL     OW22072  10.130   7.167   0.668
40022SOL    HW122073  10.132   7.182   0.573
40022SOL    HW222074  10.039   7.136   0.680
40023SOL     OW22075  10.729   5.824   1.089
40023SOL    HW122076  10.747   5.742   1.136
40023SOL    HW222077  10.684   5.877   1.159
40024SOL     OW22078  10.341   5.592   1.154
40024SOL    HW122079  10.282   5.519   1.131
40024SOL    HW222080  10.430   5.551   1.142
40025SOL     OW22081  10.092   6.928   0.336
40025SOL    HW122082  10.053   6.839   0.334
40025SOL    HW222083  10.173   6.914   0.387
40026SOL     OW22084   9.904   7.153   1.250
40026SOL    HW122085   9.910   7.232   1.307
40026SOL    HW222086   9.997   7.144   1.224
40027SOL     OW22087  10.628   5.630   0.215
40027SOL    HW122088  10.663   5.574   0.144
40027SOL    HW222089  10.536   5.598   0.223
40028SOL     OW22090  10.636   6.072   0.667
40028SOL    HW122091  10.561   6.133   0.669
40028SOL    HW222092  10.630   6.027   0.754
40029SOL     OW22093  10.911   5.818   0.891
40029SOL    HW122094  10.839   5.813   0.956
40029SOL    HW222095  10.863   5.826   0.808
40030SOL     OW22096   9.365   6.671   0.267
40030SOL    HW122097   9.462   6.663   0.269
40030SOL    HW222098   9.338   6.583   0.298
40031SOL     OW22099  10.197   7.230   0.365
40031SOL    HW122100  10.124   7.210   0.303
40031SOL    HW222101  10.175   7.321   0.395
40032SOL     OW22102   9.538   6.210   2.001
40032SOL    HW122103   9.445   6.203   2.025
40032SOL    HW222104   9.539   6.202   1.904
40033SOL     OW22105   9.522   5.873   2.865
40033SOL    HW122106   9.546   5.846   2.956
40033SOL    HW222107   9.438   5.825   2.852
40034SOL     OW22108   9.310   5.976   2.472
40034SOL    HW122109   9.234   6.002   2.529
40034SOL    HW222110   9.280   5.892   2.435
40035SOL     OW22111   9.875   6.876   3.055
40035SOL    HW122112   9.794   6.882   3.001
40035SOL    HW222113   9.887   6.968   3.084
40036SOL     OW22114  10.880   7.102   2.571
40036SOL    HW122115  10.845   7.072   2.657
40036SOL    HW222116  10.808   7.083   2.510
40037SOL     OW22117  10.448   6.269   2.563
40037SOL    HW122118  10.471   6.362   2.542
40037SOL    HW222119  10.418   6.279   2.654
40038SOL     OW22120  11.090   6.185   2.094
40038SOL    HW122121  11.059   6.190   2.002
40038SOL    HW222122  11.041   6.108   2.128
40039SOL     OW22123  10.089   6.768   2.939
40039SOL    HW122124  10.005   6.807   2.972
40039SOL    HW222125  10.104   6.818   2.858
40040SOL     OW22126  10.186   6.347   3.676
40040SOL    HW122127  10.150   6.407   3.742
40040SOL    HW222128  10.192   6.404   3.597
40041SOL     OW22129  10.022   6.744   3.666
40041SOL    HW122130  10.073   6.825   3.683
40041SOL    HW222131   9.939   6.779   3.630
40042SOL     OW22132   9.625   7.018   2.937
40042SOL    HW122133   9.555   6.976   2.884
40042SOL    HW222134   9.677   7.068   2.870
40043SOL     OW22135  10.760   7.078   3.259
40043SOL    HW122136  10.786   7.170   3.258
40043SOL    HW222137  10.679   7.083   3.313
40044SOL     OW22138   9.750   5.979   3.384
40044SOL    HW122139   9.819   5.913   3.370
40044SOL    HW222140   9.668   5.929   3.368
40045SOL     OW22141   9.529   7.305   2.330
40045SOL    HW122142   9.555   7.377   2.391
40045SOL    HW222143   9.598   7.309   2.262
40046SOL     OW22144  10.434   6.928   3.533
40046SOL    HW122145  10.479   6.922   3.618
40046SOL    HW222146  10.383   6.845   3.532
40047SOL     OW22147   9.556   7.006   2.380
40047SOL    HW122148   9.552   7.099   2.407
40047SOL    HW222149   9.492   6.964   2.441
40048SOL     OW22150   9.556   6.667   2.762
40048SOL    HW122151   9.563   6.596   2.827
40048SOL    HW222152   9.516   6.739   2.814
40049SOL     OW22153   9.914   7.367   3.286
40049SOL    HW122154   9.831   7.348   3.333
40049SOL    HW222155   9.929   7.461   3.306
40050SOL     OW22156   9.878   6.578   1.975
40050SOL    HW122157   9.932   6.625   1.908
40050SOL    HW222158   9.921   6.610   2.057
40051SOL     OW22159  10.904   5.741   3.418
40051SOL    HW122160  10.894   5.747   3.322
40051SOL    HW222161  10.999   5.724   3.427
40052SOL     OW22162   9.412   6.242   2.426
40052SOL    HW122163   9.389   6.149   2.441
40052SOL    HW222164   9.410   6.280   2.516
40053SOL     OW22165   9.362   7.190   1.974
40053SOL    HW122166   9.358   7.097   1.999
40053SOL    HW222167   9.330   7.233   2.055
40054SOL     OW22168  10.995   6.548   2.478
40054SOL    HW122169  11.067   6.495   2.515
40054SOL    HW222170  11.015   6.546   2.383
40055SOL     OW22171   9.419   6.321   3.438
40055SOL    HW122172   9.504   6.360   3.461
40055SOL    HW222173   9.358   6.396   3.448
40056SOL     OW22174   9.924   7.006   2.622
40056SOL    HW122175   9.875   6.922   2.638
40056SOL    HW222176   9.909   7.015   2.526
40057SOL     OW22177  10.598   6.820   3.292
40057SOL    HW122178  10.617   6.749   3.227
40057SOL    HW222179  10.667   6.807   3.360
40058SOL     OW22180  10.144   5.592   2.367
40058SOL    HW122181  10.177   5.683   2.360
40058SOL    HW222182  10.047   5.605   2.368
40059SOL     OW22183   9.485   6.547   3.139
40059SOL    HW122184   9.577   6.527   3.118
40059SOL    HW222185   9.435   6.491   3.078
40060SOL     OW22186  10.835   6.582   2.076
40060SOL    HW122187  10.759   6.535   2.116
40060SOL    HW222188  10.907   6.551   2.130
40061SOL     OW22189  10.491   7.390   3.481
40061SOL    HW122190  10.491   7.456   3.410
40061SOL    HW222191  10.500   7.306   3.432
40062SOL     OW22192   9.642   5.823   3.640
40062SOL    HW122193   9.708   5.890   3.658
40062SOL    HW222194   9.565   5.859   3.688
40063SOL     OW22195  10.758   7.010   2.811
40063SOL    HW122196  10.699   7.028   2.887
40063SOL    HW222197  10.738   6.917   2.792
40064SOL     OW22198  10.992   7.300   2.429
40064SOL    HW122199  10.940   7.247   2.368
40064SOL    HW222200  10.978   7.249   2.511
40065SOL     OW22201   9.904   6.294   2.124
40065SOL    HW122202   9.900   6.385   2.090
40065SOL    HW222203   9.833   6.294   2.191
40066SOL     OW22204  10.570   5.928   2.769
40066SOL    HW122205  10.483   5.891   2.789
40066SOL    HW222206  10.625   5.888   2.840
40067SOL     OW22207  10.869   7.224   2.151
40067SOL    HW122208  10.937   7.289   2.167
40067SOL    HW222209  10.853   7.232   2.055
40068SOL     OW22210  10.119   6.203   3.329
40068SOL    HW122211  10.089   6.171   3.418
40068SOL    HW222212  10.070   6.144   3.269
40069SOL     OW22213  10.710   6.073   3.550
40069SOL    HW122214  10.680   6.109   3.636
40069SOL    HW222215  10.795   6.117   3.542
40070SOL     OW22216  10.245   6.483   3.440
40070SOL    HW122217  10.290   6.400   3.412
40070SOL    HW222218  10.209   6.514   3.354
40071SOL     OW22219  10.312   5.977   3.108
40071SOL    HW122220  10.225   6.012   3.131
40071SOL    HW222221  10.298   5.936   3.022
40072SOL     OW22222  10.353   6.264   2.285
40072SOL    HW122223  10.363   6.273   2.382
40072SOL    HW222224  10.265   6.220   2.278
40073SOL     OW22225   9.405   6.391   2.659
40073SOL    HW122226   9.480   6.401   2.720
40073SOL    HW222227   9.362   6.477   2.668
40074SOL     OW22228   9.412   7.467   3.441
40074SOL    HW122229   9.430   7.429   3.530
40074SOL    HW222230   9.327   7.429   3.419
40075SOL     OW22231  10.201   5.945   2.074
40075SOL    HW122232  10.238   6.015   2.017
40075SOL    HW222233  10.232   5.867   2.026
40076SOL     OW22234  11.023   6.179   3.697
40076SOL    HW122235  10.993   6.255   3.642
40076SOL    HW222236  11.073   6.128   3.632
40077SOL     OW22237  10.682   6.739   2.445
40077SOL    HW122238  10.735   6.748   2.365
40077SOL    HW222239  10.607   6.796   2.425
40078SOL     OW22240   9.858   5.799   2.765
40078SOL    HW122241   9.865   5.806   2.862
40078SOL    HW222242   9.852   5.891   2.735
40079SOL     OW22243  10.337   7.052   2.355
40079SOL    HW122244  10.294   7.114   2.292
40079SOL    HW222245  10.304   7.084   2.440
40080SOL     OW22246   9.708   7.387   2.658
40080SOL    HW122247   9.702   7.302   2.704
40080SOL    HW222248   9.713   7.449   2.732
40081SOL     OW22249  11.090   6.616   2.737
40081SOL    HW122250  11.028   6.640   2.666
40081SOL    HW222251  11.034   6.617   2.817
40082SOL     OW22252  10.522   7.128   3.361
40082SOL    HW122253  10.500   7.058   3.426
40082SOL    HW222254  10.473   7.097   3.284
40083SOL     OW22255   9.625   6.522   2.112
40083SOL    HW122256   9.708   6.537   2.066
40083SOL    HW222257   9.585   6.449   2.062
40084SOL     OW22258  10.793   6.332   2.582
40084SOL    HW122259  10.774   6.303   2.672
40084SOL    HW222260  10.859   6.401   2.592
40085SOL     OW22261   9.779   6.850   3.582
40085SOL    HW122262   9.731   6.859   3.496
40085SOL    HW222263   9.704   6.852   3.643
40086SOL     OW22264  10.430   7.355   2.107
40086SOL    HW122265  10.355   7.309   2.149
40086SOL    HW222266  10.441   7.308   2.023
40087SOL     OW22267   9.484   5.872   3.361
40087SOL    HW122268   9.402   5.920   3.383
40087SOL    HW222269   9.480   5.796   3.421
40088SOL     OW22270   9.764   7.327   2.176
40088SOL    HW122271   9.815   7.369   2.248
40088SOL    HW222272   9.832   7.280   2.125
40089SOL     OW22273  10.730   5.705   2.313
40089SOL    HW122274  10.717   5.667   2.223
40089SOL    HW222275  10.825   5.697   2.326
40090SOL     OW22276   9.573   7.382   3.086
40090SOL    HW122277   9.614   7.299   3.112
40090SOL    HW222278   9.536   7.361   2.998
40091SOL     OW22279  10.272   7.295   2.737
40091SOL    HW122280  10.348   7.237   2.750
40091SOL    HW222281  10.220   7.245   2.671
40092SOL     OW22282   9.704   6.275   2.313
40092SOL    HW122283   9.722   6.183   2.341
40092SOL    HW222284   9.609   6.281   2.331
40093SOL     OW22285   9.943   5.722   1.957
40093SOL    HW122286  10.016   5.666   1.986
40093SOL    HW222287   9.896   5.665   1.893
40094SOL     OW22288  10.076   5.847   3.602
40094SOL    HW122289  10.149   5.785   3.615
40094SOL    HW222290  10.018   5.826   3.677
40095SOL     OW22291  10.189   7.121   3.058
40095SOL    HW122292  10.180   7.095   2.964
40095SOL    HW222293  10.245   7.051   3.093
40096SOL     OW22294  10.634   6.186   3.284
40096SOL    HW122295  10.670   6.150   3.367
40096SOL    HW222296  10.664   6.279   3.285
40097SOL     OW22297  10.143   7.001   2.792
40097SOL    HW122298  10.227   6.981   2.745
40097SOL    HW222299  10.076   6.992   2.722
40098SOL     OW22300  10.248   6.094   2.769
40098SOL    HW122301  10.221   6.087   2.674
40098SOL    HW222302  10.271   6.003   2.789
40099SOL     OW22303   9.867   5.636   2.368
40099SOL    HW122304   9.787   5.641   2.423
40099SOL    HW222305   9.854   5.712   2.307
40100SOL     OW22306  10.748   6.759   1.884
40100SOL    HW122307  10.775   6.690   1.948
40100SOL    HW222308  10.668   6.793   1.925
40101SOL     OW22309   9.582   5.639   2.062
40101SOL    HW122310   9.637   5.709   2.024
40101SOL    HW222311   9.650   5.577   2.095
40102SOL     OW22312  10.244   5.841   2.354
40102SOL    HW122313  10.217   5.887   2.273
40102SOL    HW222314  10.340   5.855   2.353
40103SOL     OW22315  10.377   6.267   3.345
40103SOL    HW122316  10.301   6.206   3.336
40103SOL    HW222317  10.454   6.212   3.325
40104SOL     OW22318  10.535   7.191   2.647
40104SOL    HW122319  10.547   7.250   2.571
40104SOL    HW222320  10.623   7.189   2.688
40105SOL     OW22321   9.746   6.804   2.618
40105SOL    HW122322   9.678   6.747   2.657
40105SOL    HW222323   9.780   6.748   2.546
40106SOL     OW22324  10.583   7.409   2.445
40106SOL    HW122325  10.632   7.475   2.393
40106SOL    HW222326  10.542   7.462   2.515
40107SOL     OW22327  10.333   6.114   1.883
40107SOL    HW122328  10.278   6.189   1.855
40107SOL    HW222329  10.405   6.158   1.930
40108SOL     OW22330   9.375   6.139   3.253
40108SOL    HW122331   9.469   6.120   3.236
40108SOL    HW222332   9.382   6.217   3.313
40109SOL     OW22333   9.871   5.811   3.036
40109SOL    HW122334   9.917   5.737   3.076
40109SOL    HW222335   9.779   5.797   3.065
40110SOL     OW22336  10.184   6.047   2.518
40110SOL    HW122337  10.145   6.097   2.445
40110SOL    HW222338  10.207   5.963   2.475
40111SOL     OW22339  10.353   5.649   2.630
40111SOL    HW122340  10.312   5.634   2.543
40111SOL    HW222341  10.327   5.568   2.678
40112SOL     OW22342  10.726   6.747   2.746
40112SOL    HW122343  10.669   6.673   2.772
40112SOL    HW222344  10.716   6.745   2.650
40113SOL     OW22345  10.772   6.192   2.862
40113SOL    HW122346  10.716   6.113   2.859
40113SOL    HW222347  10.859   6.157   2.886
40114SOL     OW22348  11.100   6.411   2.241
40114SOL    HW122349   0.053   6.367   2.309
40114SOL    HW222350  11.101   6.341   2.173
40115SOL     OW22351   9.801   7.010   1.989
40115SOL    HW122352   9.718   6.998   2.039
40115SOL    HW222353   9.786   6.957   1.910
40116SOL     OW22354  10.712   6.177   1.925
40116SOL    HW122355  10.656   6.145   1.997
40116SOL    HW222356  10.801   6.166   1.962
40117SOL     OW22357   9.831   5.819   2.184
40117SOL    HW122358   9.875   5.790   2.102
40117SOL    HW222359   9.800   5.907   2.155
40118SOL     OW22360  11.036   6.814   3.429
40118SOL    HW122361   0.026   6.786   3.447
40118SOL    HW222362  11.037   6.908   3.449
40119SOL     OW22363  10.367   6.937   3.204
40119SOL    HW122364  10.286   6.901   3.244
40119SOL    HW222365  10.436   6.887   3.252
40120SOL     OW22366  10.929   7.211   3.506
40120SOL    HW122367  10.938   7.251   3.418
40120SOL    HW222368  11.011   7.163   3.515
40121SOL     OW22369  10.449   6.795   2.962
40121SOL    HW122370  10.368   6.810   3.013
40121SOL    HW222371  10.420   6.813   2.872
40122SOL     OW22372  10.922   6.686   2.957
40122SOL    HW122373  10.913   6.751   3.030
40122SOL    HW222374  10.851   6.716   2.897
40123SOL     OW22375  10.218   5.695   3.260
40123SOL    HW122376  10.244   5.665   3.172
40123SOL    HW222377  10.302   5.730   3.295
40124SOL     OW22378  10.309   6.697   3.591
40124SOL    HW122379  10.223   6.723   3.627
40124SOL    HW222380  10.287   6.622   3.533
40125SOL     OW22381  10.013   6.644   2.199
40125SOL    HW122382  10.005   6.638   2.296
40125SOL    HW222383  10.090   6.586   2.182
40126SOL     OW22384   9.729   6.395   3.125
40126SOL    HW122385   9.801   6.384   3.190
40126SOL    HW222386   9.678   6.314   3.135
40127SOL     OW22387  10.594   5.964   3.140
40127SOL    HW122388  10.620   6.049   3.181
40127SOL    HW222389  10.502   5.982   3.114
40128SOL     OW22390   9.386   7.151   3.203
40128SOL    HW122391   9.378   7.222   3.138
40128SOL    HW222392   9.482   7.133   3.201
40129SOL     OW22393   9.644   6.690   2.351
40129SOL    HW122394   9.702   6.752   2.306
40129SOL    HW222395   9.673   6.605   2.317
40130SOL     OW22396   9.851   6.130   2.712
40130SOL    HW122397   9.875   6.190   2.637
40130SOL    HW222398   9.924   6.147   2.773
40131SOL     OW22399  10.558   6.974   2.223
40131SOL    HW122400  10.617   7.031   2.275
40131SOL    HW222401  10.473   6.992   2.268
40132SOL     OW22402  10.602   7.051   3.034
40132SOL    HW122403  10.656   7.033   3.113
40132SOL    HW222404  10.532   6.983   3.040
40133SOL     OW22405  10.884   6.216   2.325
40133SOL    HW122406  10.833   6.248   2.402
40133SOL    HW222407  10.950   6.285   2.312
40134SOL     OW22408   9.648   7.098   3.180
40134SOL    HW122409   9.634   7.064   3.088
40134SOL    HW222410   9.742   7.122   3.174
40135SOL     OW22411   9.746   6.316   3.490
40135SOL    HW122412   9.800   6.360   3.422
40135SOL    HW222413   9.780   6.226   3.487
40136SOL     OW22414  10.925   6.352   3.521
40136SOL    HW122415  10.840   6.400   3.529
40136SOL    HW222416  10.973   6.412   3.460
40137SOL     OW22417  10.300   5.680   3.618
40137SOL    HW122418  10.353   5.756   3.591
40137SOL    HW222419  10.347   5.607   3.576
40138SOL     OW22420   9.808   5.603   3.618
40138SOL    HW122421   9.767   5.542   3.554
40138SOL    HW222422   9.743   5.676   3.618
40139SOL     OW22423   9.903   6.478   2.921
40139SOL    HW122424   9.922   6.572   2.909
40139SOL    HW222425   9.838   6.477   2.993
40140SOL     OW22426  10.692   6.461   2.883
40140SOL    HW122427  10.602   6.432   2.861
40140SOL    HW222428  10.735   6.374   2.895
40141SOL     OW22429  10.535   6.106   2.130
40141SOL    HW122430  10.542   6.031   2.192
40141SOL    HW222431  10.474   6.164   2.179
40142SOL     OW22432   9.609   5.781   3.111
40142SOL    HW122433   9.566   5.810   3.193
40142SOL    HW222434   9.580   5.687   3.106
40143SOL     OW22435   9.329   6.894   3.145
40143SOL    HW122436   9.365   6.836   3.216
40143SOL    HW222437   9.349   6.984   3.177
40144SOL     OW22438  10.033   6.231   2.915
40144SOL    HW122439  10.114   6.220   2.864
40144SOL    HW222440  10.004   6.323   2.897
40145SOL     OW22441   9.613   5.640   2.478
40145SOL    HW122442   9.588   5.732   2.499
40145SOL    HW222443   9.621   5.600   2.567
40146SOL     OW22444  10.930   5.973   2.205
40146SOL    HW122445  10.949   5.911   2.276
40146SOL    HW222446  10.899   6.052   2.254
40147SOL     OW22447  10.388   6.309   2.844
40147SOL    HW122448  10.363   6.324   2.937
40147SOL    HW222449  10.343   6.224   2.826
40148SOL     OW22450  10.289   7.152   3.575
40148SOL    HW122451  10.286   7.205   3.493
40148SOL    HW222452  10.318   7.065   3.542
40149SOL     OW22453   9.656   6.493   3.661
40149SOL    HW122454   9.738   6.510   3.707
40149SOL    HW222455   9.680   6.418   3.601
40150SOL     OW22456  10.814   5.861   1.985
40150SOL    HW122457  10.754   5.800   2.030
40150SOL    HW222458  10.862   5.900   2.061
40151SOL     OW22459  10.598   6.423   1.888
40151SOL    HW122460  10.646   6.340   1.905
40151SOL    HW222461  10.638   6.453   1.805
40152SOL     OW22462  10.388   6.951   2.701
40152SOL    HW122463  10.387   6.873   2.642
40152SOL    HW222464  10.452   7.011   2.660
40153SOL     OW22465   9.589   6.405   2.869
40153SOL    HW122466   9.679   6.427   2.841
40153SOL    HW222467   9.598   6.311   2.891
40154SOL     OW22468   9.644   6.122   2.876
40154SOL    HW122469   9.609   6.032   2.861
40154SOL    HW222470   9.712   6.128   2.805
40155SOL     OW22471  10.465   5.952   3.545
40155SOL    HW122472  10.413   6.005   3.609
40155SOL    HW222473  10.552   5.994   3.549
40156SOL     OW22474  10.475   5.777   3.337
40156SOL    HW122475  10.472   5.851   3.401
40156SOL    HW222476  10.500   5.823   3.256
40157SOL     OW22477   9.314   6.900   2.042
40157SOL    HW122478   9.219   6.911   2.017
40157SOL    HW222479   9.315   6.815   2.090
40158SOL     OW22480   9.800   7.162   2.796
40158SOL    HW122481   9.866   7.228   2.823
40158SOL    HW222482   9.850   7.107   2.733
40159SOL     OW22483  10.299   6.345   3.090
40159SOL    HW122484  10.337   6.323   3.177
40159SOL    HW222485  10.205   6.346   3.109
40160SOL     OW22486   9.333   6.115   2.975
40160SOL    HW122487   9.410   6.098   2.918
40160SOL    HW222488   9.372   6.125   3.062
40161SOL     OW22489   9.530   6.102   3.586
40161SOL    HW122490   9.584   6.058   3.519
40161SOL    HW222491   9.478   6.165   3.534
40162SOL     OW22492  10.705   6.508   3.525
40162SOL    HW122493  10.711   6.605   3.531
40162SOL    HW222494  10.682   6.495   3.432
40163SOL     OW22495  10.113   6.152   2.241
40163SOL    HW122496  10.118   6.085   2.171
40163SOL    HW222497  10.040   6.209   2.210
40164SOL     OW22498   9.559   7.131   3.588
40164SOL    HW122499   9.547   7.198   3.656
40164SOL    HW222500   9.569   7.049   3.641
40165SOL     OW22501  10.005   6.062   3.132
40165SOL    HW122502   9.953   5.988   3.098
40165SOL    HW222503  10.001   6.126   3.058
40166SOL     OW22504  10.245   7.284   3.344
40166SOL    HW122505  10.217   7.243   3.261
40166SOL    HW222506  10.231   7.379   3.327
40167SOL     OW22507   9.758   6.053   2.072
40167SOL    HW122508   9.822   6.126   2.068
40167SOL    HW222509   9.674   6.102   2.062
40168SOL     OW22510   9.418   6.721   3.326
40168SOL    HW122511   9.432   6.668   3.408
40168SOL    HW222512   9.440   6.655   3.256
40169SOL     OW22513  10.626   6.640   3.086
40169SOL    HW122514  10.649   6.582   3.011
40169SOL    HW222515  10.561   6.701   3.045
40170SOL     OW22516  10.620   6.446   2.159
40170SOL    HW122517  10.547   6.406   2.208
40170SOL    HW222518  10.589   6.445   2.067
40171SOL     OW22519  11.044   7.342   2.991
40171SOL    HW122520   0.017   7.361   2.931
40171SOL    HW222521  11.028   7.246   2.976
40172SOL     OW22522  10.564   7.310   2.974
40172SOL    HW122523  10.647   7.320   2.924
40172SOL    HW222524  10.563   7.213   2.991
40173SOL     OW22525   9.415   6.841   2.900
40173SOL    HW122526   9.377   6.863   2.988
40173SOL    HW222527   9.336   6.813   2.851
40174SOL     OW22528  10.005   7.229   3.602
40174SOL    HW122529   9.967   7.315   3.577
40174SOL    HW222530  10.094   7.234   3.566
40175SOL     OW22531  11.045   5.720   2.412
40175SOL    HW122532  11.096   5.717   2.329
40175SOL    HW222533  11.039   5.626   2.437
40176SOL     OW22534  10.694   7.178   2.354
40176SOL    HW122535  10.743   7.196   2.272
40176SOL    HW222536  10.640   7.259   2.367
40177SOL     OW22537   9.466   7.383   3.696
40177SOL    HW122538   9.423   7.312   3.748
40177SOL    HW222539   9.509   7.434   3.767
40178SOL     OW22540  10.571   6.506   2.535
40178SOL    HW122541  10.644   6.444   2.546
40178SOL    HW222542  10.614   6.579   2.487
40179SOL     OW22543  10.090   6.828   3.291
40179SOL    HW122544  10.062   6.882   3.368
40179SOL    HW222545  10.023   6.853   3.226
40180SOL     OW22546   9.982   7.200   2.031
40180SOL    HW122547   9.997   7.210   1.935
40180SOL    HW222548   9.926   7.119   2.031
40181SOL     OW22549   9.553   5.888   2.567
40181SOL    HW122550   9.470   5.934   2.543
40181SOL    HW222551   9.560   5.907   2.662
40182SOL     OW22552  10.508   7.216   1.883
40182SOL    HW122553  10.505   7.123   1.910
40182SOL    HW222554  10.443   7.220   1.810
40183SOL     OW22555  10.136   6.581   3.214
40183SOL    HW122556  10.147   6.603   3.121
40183SOL    HW222557  10.130   6.670   3.255
40184SOL     OW22558  10.221   6.488   2.125
40184SOL    HW122559  10.300   6.526   2.083
40184SOL    HW222560  10.258   6.416   2.179
40185SOL     OW22561  10.819   7.256   1.891
40185SOL    HW122562  10.726   7.228   1.887
40185SOL    HW222563  10.851   7.236   1.802
40186SOL     OW22564   9.647   6.866   3.358
40186SOL    HW122565   9.648   6.930   3.286
40186SOL    HW222566   9.569   6.811   3.340
40187SOL     OW22567  10.898   6.889   3.145
40187SOL    HW122568  10.955   6.863   3.219
40187SOL    HW222569  10.841   6.958   3.187
40188SOL     OW22570  10.378   6.716   2.573
40188SOL    HW122571  10.299   6.675   2.614
40188SOL    HW222572  10.430   6.636   2.555
40189SOL     OW22573  10.338   5.807   2.849
40189SOL    HW122574  10.326   5.763   2.762
40189SOL    HW222575  10.347   5.730   2.908
40190SOL     OW22576   9.925   7.071   2.356
40190SOL    HW122577   9.970   7.022   2.285
40190SOL    HW222578   9.840   7.094   2.318
40191SOL     OW22579   9.558   6.968   2.125
40191SOL    HW122580   9.463   6.948   2.116
40191SOL    HW222581   9.565   6.982   2.223
40192SOL     OW22582   9.441   6.605   3.560
40192SOL    HW122583   9.368   6.586   3.623
40192SOL    HW222584   9.519   6.567   3.606
40193SOL     OW22585   9.968   5.781   3.354
40193SOL    HW122586  10.051   5.754   3.311
40193SOL    HW222587  10.001   5.814   3.440
40194SOL     OW22588   9.404   5.917   1.883
40194SOL    HW122589   9.311   5.919   1.857
40194SOL    HW222590   9.438   5.992   1.830
40195SOL     OW22591  10.716   6.449   3.251
40195SOL    HW122592  10.668   6.512   3.193
40195SOL    HW222593  10.807   6.463   3.222
40196SOL     OW22594   9.352   5.751   2.156
40196SOL    HW122595   9.346   5.838   2.113
40196SOL    HW222596   9.435   5.717   2.119
40197SOL     OW22597  10.494   6.937   1.968
40197SOL    HW122598  10.412   6.887   1.980
40197SOL    HW222599  10.523   6.949   2.061
40198SOL     OW22600   9.932   6.392   3.303
40198SOL    HW122601   9.984   6.472   3.286
40198SOL    HW222602  10.004   6.326   3.312
40199SOL     OW22603  10.789   7.353   2.826
40199SOL    HW122604  10.813   7.394   2.742
40199SOL    HW222605  10.872   7.360   2.876
40200SOL     OW22606  10.040   6.136   3.573
40200SOL    HW122607  10.080   6.196   3.638
40200SOL    HW222608  10.058   6.048   3.609
40201SOL     OW22609  10.778   6.781   3.486
40201SOL    HW122610  10.769   6.783   3.584
40201SOL    HW222611  10.874   6.789   3.474
40202SOL     OW22612   9.679   7.314   3.420
40202SOL    HW122613   9.598   7.364   3.399
40202SOL    HW222614   9.642   7.232   3.456
40203SOL     OW22615  10.991   6.457   3.089
40203SOL    HW122616  10.996   6.384   3.026
40203SOL    HW222617  10.961   6.532   3.035
40204SOL     OW22618  10.522   5.900   2.329
40204SOL    HW122619  10.588   5.828   2.318
40204SOL    HW222620  10.559   5.950   2.404
40205SOL     OW22621   9.906   6.318   2.513
40205SOL    HW122622   9.945   6.407   2.508
40205SOL    HW222623   9.833   6.324   2.450
40206SOL     OW22624  11.073   5.968   3.494
40206SOL    HW122625  11.070   6.028   3.417
40206SOL    HW222626  10.987   5.925   3.494
40207SOL     OW22627  11.041   6.515   3.347
40207SOL    HW122628  11.031   6.611   3.350
40207SOL    HW222629  11.027   6.493   3.253
40208SOL     OW22630  10.165   6.948   1.889
40208SOL    HW122631  10.150   6.965   1.984
40208SOL    HW222632  10.194   7.034   1.855
40209SOL     OW22633   9.971   7.388   2.834
40209SOL    HW122634   9.946   7.471   2.789
40209SOL    HW222635  10.057   7.366   2.796
40210SOL     OW22636  10.239   6.533   2.724
40210SOL    HW122637  10.243   6.450   2.772
40210SOL    HW222638  10.145   6.551   2.713
40211SOL     OW22639  10.417   6.599   1.964
40211SOL    HW122640  10.382   6.640   1.883
40211SOL    HW222641  10.483   6.537   1.928
40212SOL     OW22642   0.054   7.132   2.708
40212SOL    HW122643  11.076   7.114   2.655
40212SOL    HW222644   0.065   7.049   2.756
40213SOL     OW22645   9.560   6.898   3.730
40213SOL    HW122646   9.484   6.847   3.699
40213SOL    HW222647   9.544   6.900   3.826
40214SOL     OW22648   9.414   6.807   2.513
40214SOL    HW122649   9.423   6.766   2.599
40214SOL    HW222650   9.491   6.771   2.466
40215SOL     OW22651   9.987   6.980   3.480
40215SOL    HW122652   9.908   6.931   3.512
40215SOL    HW222653   9.974   7.067   3.520
40216SOL     OW22654   0.005   5.754   3.067
40216SOL    HW122655   0.056   5.677   3.094
40216SOL    HW222656  11.083   5.735   2.975
40217SOL     OW22657   9.736   6.016   2.397
40217SOL    HW122658   9.792   5.951   2.352
40217SOL    HW222659   9.693   5.965   2.468
40218SOL     OW22660  10.979   7.092   2.962
40218SOL    HW122661  10.900   7.083   2.906
40218SOL    HW222662  10.976   7.010   3.014
40219SOL     OW22663   9.629   6.115   3.147
40219SOL    HW122664   9.707   6.082   3.194
40219SOL    HW222665   9.652   6.101   3.053
40220SOL     OW22666  10.128   7.179   2.537
40220SOL    HW122667  10.099   7.193   2.446
40220SOL    HW222668  10.055   7.124   2.571
40221SOL     OW22669  10.729   5.819   2.955
40221SOL    HW122670  10.765   5.738   2.992
40221SOL    HW222671  10.695   5.866   3.033
40222SOL     OW22672  10.330   5.578   3.017
40222SOL    HW122673  10.278   5.497   3.005
40222SOL    HW222674  10.422   5.544   3.008
40223SOL     OW22675  10.101   6.921   2.178
40223SOL    HW122676  10.061   6.832   2.174
40223SOL    HW222677  10.171   6.908   2.244
40224SOL     OW22678   9.912   7.138   3.135
40224SOL    HW122679   9.914   7.222   3.186
40224SOL    HW222680  10.002   7.139   3.099
40225SOL     OW22681  10.665   5.626   2.070
40225SOL    HW122682  10.679   5.584   1.984
40225SOL    HW222683  10.579   5.586   2.096
40226SOL     OW22684  10.627   6.049   2.530
40226SOL    HW122685  10.564   6.123   2.526
40226SOL    HW222686  10.611   6.012   2.618
40227SOL     OW22687  10.920   5.800   2.754
40227SOL    HW122688  10.843   5.796   2.813
40227SOL    HW222689  10.883   5.842   2.676
40228SOL     OW22690   9.362   6.666   2.179
40228SOL    HW122691   9.458   6.668   2.199
40228SOL    HW222692   9.342   6.571   2.193
40229SOL     OW22693  10.197   7.241   2.207
40229SOL    HW122694  10.117   7.219   2.156
40229SOL    HW222695  10.170   7.319   2.260
40230SOL     OW22696   9.541   6.236   3.864
40230SOL    HW122697   9.450   6.217   3.891
40230SOL    HW222698   9.544   6.209   3.771
40231SOL     OW22699   9.538   5.874   4.722
40231SOL    HW122700   9.559   5.845   4.813
40231SOL    HW222701   9.452   5.829   4.708
40232SOL     OW22702   9.306   5.988   4.341
40232SOL    HW122703   9.228   6.006   4.397
40232SOL    HW222704   9.281   5.904   4.300
40233SOL     OW22705   9.866   6.880   4.912
40233SOL    HW122706   9.771   6.880   4.891
40233SOL    HW222707   9.879   6.977   4.923
40234SOL     OW22708  10.881   7.109   4.438
40234SOL    HW122709  10.846   7.072   4.521
40234SOL    HW222710  10.811   7.089   4.373
40235SOL     OW22711  10.447   6.269   4.425
40235SOL    HW122712  10.474   6.358   4.399
40235SOL    HW222713  10.417   6.284   4.516
40236SOL     OW22714  11.090   6.192   3.958
40236SOL    HW122715  11.065   6.196   3.864
40236SOL    HW222716  11.042   6.113   3.987
40237SOL     OW22717  10.030   6.744   4.752
40237SOL    HW122718   9.968   6.789   4.814
40237SOL    HW222719  10.075   6.821   4.713
40238SOL     OW22720  10.186   6.349   5.531
40238SOL    HW122721  10.149   6.406   5.600
40238SOL    HW222722  10.197   6.410   5.455
40239SOL     OW22723  10.005   6.618   4.381
40239SOL    HW122724  10.067   6.587   4.450
40239SOL    HW222725   9.936   6.661   4.433
40240SOL     OW22726  10.022   6.747   5.523
40240SOL    HW122727  10.071   6.829   5.547
40240SOL    HW222728   9.939   6.784   5.487
40241SOL     OW22729   9.643   6.996   4.779
40241SOL    HW122730   9.559   6.974   4.739
40241SOL    HW222731   9.681   7.066   4.724
40242SOL     OW22732  10.765   7.079   5.117
40242SOL    HW122733  10.792   7.171   5.119
40242SOL    HW222734  10.683   7.083   5.171
40243SOL     OW22735   9.741   5.973   5.239
40243SOL    HW122736   9.810   5.906   5.233
40243SOL    HW222737   9.660   5.922   5.223
40244SOL     OW22738   9.551   7.369   4.215
40244SOL    HW122739   9.648   7.368   4.205
40244SOL    HW222740   9.526   7.333   4.129
40245SOL     OW22741  10.436   6.924   5.396
40245SOL    HW122742  10.474   6.928   5.485
40245SOL    HW222743  10.387   6.839   5.401
40246SOL     OW22744   9.552   7.028   4.247
40246SOL    HW122745   9.557   7.112   4.293
40246SOL    HW222746   9.493   6.976   4.304
40247SOL     OW22747   9.574   6.684   4.626
40247SOL    HW122748   9.572   6.605   4.683
40247SOL    HW222749   9.528   6.749   4.681
40248SOL     OW22750   9.921   7.379   5.142
40248SOL    HW122751   9.839   7.350   5.185
40248SOL    HW222752   9.929   7.471   5.171
40249SOL     OW22753   9.892   6.572   3.844
40249SOL    HW122754   9.937   6.626   3.777
40249SOL    HW222755   9.930   6.610   3.926
40250SOL     OW22756  10.901   5.681   5.220
40250SOL    HW122757  10.927   5.741   5.150
40250SOL    HW222758  10.913   5.734   5.300
40251SOL     OW22759   9.422   6.240   4.289
40251SOL    HW122760   9.392   6.148   4.305
40251SOL    HW222761   9.418   6.280   4.378
40252SOL     OW22762   9.375   7.179   3.845
40252SOL    HW122763   9.358   7.085   3.858
40252SOL    HW222764   9.338   7.219   3.926
40253SOL     OW22765  10.984   6.546   4.336
40253SOL    HW122766  11.058   6.493   4.368
40253SOL    HW222767  11.008   6.560   4.244
40254SOL     OW22768   9.441   6.335   5.308
40254SOL    HW122769   9.535   6.357   5.310
40254SOL    HW222770   9.405   6.417   5.348
40255SOL     OW22771   9.917   6.988   4.491
40255SOL    HW122772   9.878   6.899   4.507
40255SOL    HW222773   9.905   6.994   4.395
40256SOL     OW22774  10.596   6.818   5.155
40256SOL    HW122775  10.615   6.744   5.094
40256SOL    HW222776  10.667   6.809   5.223
40257SOL     OW22777  10.138   5.590   4.219
40257SOL    HW122778  10.169   5.682   4.209
40257SOL    HW222779  10.041   5.602   4.226
40258SOL     OW22780   9.492   6.563   4.986
40258SOL    HW122781   9.584   6.537   4.969
40258SOL    HW222782   9.441   6.491   4.948
40259SOL     OW22783  10.836   6.566   3.929
40259SOL    HW122784  10.769   6.518   3.982
40259SOL    HW222785  10.910   6.574   3.990
40260SOL     OW22786  10.494   7.397   5.327
40260SOL    HW122787  10.481   7.455   5.251
40260SOL    HW222788  10.514   7.311   5.285
40261SOL     OW22789   9.661   5.815   5.496
40261SOL    HW122790   9.696   5.902   5.517
40261SOL    HW222791   9.568   5.827   5.523
40262SOL     OW22792  10.756   7.010   4.669
40262SOL    HW122793  10.702   7.029   4.749
40262SOL    HW222794  10.738   6.915   4.654
40263SOL     OW22795  10.995   7.304   4.297
40263SOL    HW122796  10.955   7.258   4.223
40263SOL    HW222797  10.973   7.244   4.371
40264SOL     OW22798   9.887   6.303   3.988
40264SOL    HW122799   9.897   6.392   3.953
40264SOL    HW222800   9.801   6.308   4.035
40265SOL     OW22801  10.571   5.945   4.649
40265SOL    HW122802  10.488   5.898   4.661
40265SOL    HW222803  10.630   5.900   4.712
40266SOL     OW22804  10.856   7.220   4.014
40266SOL    HW122805  10.927   7.284   4.020
40266SOL    HW222806  10.838   7.219   3.917
40267SOL     OW22807  10.100   6.199   5.198
40267SOL    HW122808  10.086   6.161   5.288
40267SOL    HW222809  10.053   6.138   5.140
40268SOL     OW22810  10.694   6.069   5.392
40268SOL    HW122811  10.694   6.127   5.470
40268SOL    HW222812  10.748   5.993   5.422
40269SOL     OW22813  10.248   6.481   5.307
40269SOL    HW122814  10.291   6.400   5.271
40269SOL    HW222815  10.209   6.519   5.226
40270SOL     OW22816  10.315   5.981   4.976
40270SOL    HW122817  10.229   6.016   5.002
40270SOL    HW222818  10.299   5.948   4.887
40271SOL     OW22819  10.354   6.277   4.142
40271SOL    HW122820  10.362   6.289   4.239
40271SOL    HW222821  10.269   6.229   4.134
40272SOL     OW22822   9.412   6.391   4.516
40272SOL    HW122823   9.484   6.399   4.580
40272SOL    HW222824   9.360   6.471   4.534
40273SOL     OW22825   9.410   7.456   5.291
40273SOL    HW122826   9.435   7.428   5.382
40273SOL    HW222827   9.322   7.418   5.283
40274SOL     OW22828  10.195   5.947   3.936
40274SOL    HW122829  10.240   6.007   3.876
40274SOL    HW222830  10.203   5.863   3.889
40275SOL     OW22831  11.021   6.177   5.558
40275SOL    HW122832  10.982   6.247   5.501
40275SOL    HW222833  11.067   6.122   5.493
40276SOL     OW22834  10.679   6.741   4.304
40276SOL    HW122835  10.734   6.733   4.226
40276SOL    HW222836  10.612   6.804   4.274
40277SOL     OW22837   9.859   5.770   4.614
40277SOL    HW122838   9.858   5.797   4.709
40277SOL    HW222839   9.842   5.853   4.569
40278SOL     OW22840  10.329   7.041   4.218
40278SOL    HW122841  10.298   7.107   4.153
40278SOL    HW222842  10.315   7.085   4.302
40279SOL     OW22843   9.648   7.409   4.544
40279SOL    HW122844   9.693   7.322   4.553
40279SOL    HW222845   9.712   7.467   4.589
40280SOL     OW22846  11.093   6.611   4.602
40280SOL    HW122847  11.036   6.643   4.530
40280SOL    HW222848  11.036   6.617   4.681
40281SOL     OW22849  10.528   7.126   5.226
40281SOL    HW122850  10.506   7.056   5.289
40281SOL    HW222851  10.470   7.102   5.152
40282SOL     OW22852   9.622   6.532   3.977
40282SOL    HW122853   9.705   6.550   3.931
40282SOL    HW222854   9.590   6.452   3.931
40283SOL     OW22855  10.783   6.335   4.431
40283SOL    HW122856  10.771   6.289   4.516
40283SOL    HW222857  10.858   6.392   4.446
40284SOL     OW22858   9.780   6.856   5.449
40284SOL    HW122859   9.741   6.847   5.359
40284SOL    HW222860   9.698   6.862   5.503
40285SOL     OW22861  10.434   7.358   3.964
40285SOL    HW122862  10.360   7.308   4.002
40285SOL    HW222863  10.454   7.311   3.881
40286SOL     OW22864   9.469   5.870   5.217
40286SOL    HW122865   9.390   5.915   5.253
40286SOL    HW222866   9.457   5.780   5.250
40287SOL     OW22867   9.767   7.330   4.025
40287SOL    HW122868   9.820   7.370   4.097
40287SOL    HW222869   9.836   7.287   3.971
40288SOL     OW22870  10.725   5.701   4.157
40288SOL    HW122871  10.726   5.660   4.070
40288SOL    HW222872  10.817   5.693   4.186
40289SOL     OW22873   9.567   7.386   4.954
40289SOL    HW122874   9.614   7.321   5.010
40289SOL    HW222875   9.546   7.333   4.878
40290SOL     OW22876  10.278   7.288   4.604
40290SOL    HW122877  10.343   7.225   4.639
40290SOL    HW222878  10.231   7.234   4.537
40291SOL     OW22879   9.674   6.286   4.185
40291SOL    HW122880   9.699   6.194   4.210
40291SOL    HW222881   9.579   6.282   4.206
40292SOL     OW22882  10.837   5.827   5.461
40292SOL    HW122883  10.824   5.836   5.558
40292SOL    HW222884  10.786   5.747   5.443
40293SOL     OW22885   9.947   5.715   3.817
40293SOL    HW122886  10.015   5.652   3.844
40293SOL    HW222887   9.895   5.663   3.752
40294SOL     OW22888  10.072   5.826   5.458
40294SOL    HW122889  10.157   5.789   5.489
40294SOL    HW222890  10.022   5.838   5.540
40295SOL     OW22891  10.213   7.150   4.901
40295SOL    HW122892  10.178   7.107   4.821
40295SOL    HW222893  10.247   7.074   4.951
40296SOL     OW22894  10.626   6.191   5.151
40296SOL    HW122895  10.662   6.153   5.233
40296SOL    HW222896  10.672   6.277   5.144
40297SOL     OW22897  10.140   6.989   4.674
40297SOL    HW122898  10.226   6.976   4.629
40297SOL    HW222899  10.077   6.993   4.600
40298SOL     OW22900  10.240   6.097   4.631
40298SOL    HW122901  10.216   6.088   4.536
40298SOL    HW222902  10.272   6.008   4.650
40299SOL     OW22903   9.867   5.627   4.219
40299SOL    HW122904   9.789   5.635   4.277
40299SOL    HW222905   9.854   5.706   4.161
40300SOL     OW22906  10.753   6.752   3.745
40300SOL    HW122907  10.775   6.680   3.807
40300SOL    HW222908  10.674   6.791   3.787
40301SOL     OW22909   9.593   5.632   3.918
40301SOL    HW122910   9.655   5.704   3.901
40301SOL    HW222911   9.653   5.564   3.955
40302SOL     OW22912  10.249   5.843   4.205
40302SOL    HW122913  10.229   5.889   4.122
40302SOL    HW222914  10.346   5.855   4.209
40303SOL     OW22915  10.364   6.268   5.195
40303SOL    HW122916  10.310   6.187   5.194
40303SOL    HW222917  10.455   6.234   5.182
40304SOL     OW22918  10.553   7.147   4.502
40304SOL    HW122919  10.559   7.222   4.442
40304SOL    HW222920  10.637   7.150   4.550
40305SOL     OW22921   9.781   6.756   4.467
40305SOL    HW122922   9.707   6.729   4.525
40305SOL    HW222923   9.746   6.733   4.379
40306SOL     OW22924  10.560   7.402   4.311
40306SOL    HW122925  10.612   7.459   4.251
40306SOL    HW222926  10.532   7.464   4.380
40307SOL     OW22927  10.344   6.121   3.743
40307SOL    HW122928  10.298   6.202   3.714
40307SOL    HW222929  10.411   6.156   3.803
40308SOL     OW22930   9.367   6.158   5.121
40308SOL    HW122931   9.460   6.138   5.106
40308SOL    HW222932   9.373   6.233   5.184
40309SOL     OW22933   9.867   5.825   4.886
40309SOL    HW122934   9.915   5.746   4.913
40309SOL    HW222935   9.778   5.811   4.922
40310SOL     OW22936  10.189   6.045   4.379
40310SOL    HW122937  10.144   6.097   4.310
40310SOL    HW222938  10.213   5.965   4.331
40311SOL     OW22939  10.379   5.656   4.493
40311SOL    HW122940  10.325   5.659   4.413
40311SOL    HW222941  10.348   5.572   4.534
40312SOL     OW22942  10.740   6.748   4.607
40312SOL    HW122943  10.699   6.664   4.631
40312SOL    HW222944  10.716   6.755   4.513
40313SOL     OW22945  10.772   6.178   4.708
40313SOL    HW122946  10.714   6.101   4.716
40313SOL    HW222947  10.857   6.145   4.741
40314SOL     OW22948   0.002   6.414   4.106
40314SOL    HW122949   0.055   6.369   4.174
40314SOL    HW222950   0.002   6.343   4.038
40315SOL     OW22951   9.802   7.014   3.850
40315SOL    HW122952   9.720   6.997   3.899
40315SOL    HW222953   9.788   6.964   3.769
40316SOL     OW22954  10.703   6.177   3.804
40316SOL    HW122955  10.646   6.148   3.878
40316SOL    HW222956  10.792   6.166   3.840
40317SOL     OW22957   9.827   5.818   4.039
40317SOL    HW122958   9.878   5.790   3.961
40317SOL    HW222959   9.791   5.903   4.009
40318SOL     OW22960  11.038   6.826   5.316
40318SOL    HW122961   0.026   6.789   5.321
40318SOL    HW222962  11.053   6.919   5.333
40319SOL     OW22963  10.375   6.948   5.054
40319SOL    HW122964  10.291   6.916   5.091
40319SOL    HW222965  10.440   6.896   5.107
40320SOL     OW22966  10.935   7.207   5.366
40320SOL    HW122967  10.940   7.243   5.277
40320SOL    HW222968  11.016   7.155   5.372
40321SOL     OW22969  10.448   6.798   4.820
40321SOL    HW122970  10.379   6.833   4.878
40321SOL    HW222971  10.429   6.841   4.736
40322SOL     OW22972  10.933   6.687   4.819
40322SOL    HW122973  10.916   6.747   4.895
40322SOL    HW222974  10.871   6.723   4.754
40323SOL     OW22975  10.231   5.678   5.124
40323SOL    HW122976  10.253   5.660   5.031
40323SOL    HW222977  10.311   5.727   5.153
40324SOL     OW22978  10.308   6.695   5.463
40324SOL    HW122979  10.218   6.723   5.487
40324SOL    HW222980  10.290   6.618   5.405
40325SOL     OW22981  10.021   6.646   4.081
40325SOL    HW122982  10.013   6.629   4.176
40325SOL    HW222983  10.100   6.593   4.056
40326SOL     OW22984   9.730   6.394   4.987
40326SOL    HW122985   9.801   6.395   5.054
40326SOL    HW222986   9.686   6.309   5.004
40327SOL     OW22987  10.594   5.971   5.003
40327SOL    HW122988  10.621   6.053   5.049
40327SOL    HW222989  10.500   5.989   4.984
40328SOL     OW22990   9.372   7.163   5.052
40328SOL    HW122991   9.380   7.258   5.039
40328SOL    HW222992   9.466   7.138   5.072
40329SOL     OW22993   9.683   6.693   4.225
40329SOL    HW122994   9.701   6.747   4.148
40329SOL    HW222995   9.662   6.607   4.184
40330SOL     OW22996   9.840   6.124   4.561
40330SOL    HW122997   9.867   6.189   4.493
40330SOL    HW222998   9.914   6.126   4.623
40331SOL     OW22999  10.555   6.965   4.092
40331SOL    HW123000  10.607   7.031   4.141
40331SOL    HW223001  10.470   6.970   4.139
40332SOL     OW23002  10.611   7.053   4.894
40332SOL    HW123003  10.676   7.048   4.967
40332SOL    HW223004  10.543   6.990   4.922
40333SOL     OW23005  10.893   6.196   4.193
40333SOL    HW123006  10.832   6.238   4.257
40333SOL    HW223007  10.955   6.267   4.173
40334SOL     OW23008   9.756   6.313   5.358
40334SOL    HW123009   9.810   6.359   5.291
40334SOL    HW223010   9.783   6.221   5.347
40335SOL     OW23011  10.922   6.350   5.389
40335SOL    HW123012  10.834   6.392   5.393
40335SOL    HW223013  10.969   6.412   5.329
40336SOL     OW23014  10.297   5.675   5.462
40336SOL    HW123015  10.347   5.758   5.453
40336SOL    HW223016  10.364   5.612   5.428
40337SOL     OW23017   9.855   5.594   5.461
40337SOL    HW123018   9.789   5.536   5.418
40337SOL    HW223019   9.802   5.675   5.469
40338SOL     OW23020   9.896   6.479   4.776
40338SOL    HW123021   9.921   6.573   4.781
40338SOL    HW223022   9.840   6.465   4.854
40339SOL     OW23023  10.699   6.445   4.748
40339SOL    HW123024  10.610   6.414   4.727
40339SOL    HW223025  10.747   6.360   4.751
40340SOL     OW23026  10.525   6.105   4.003
40340SOL    HW123027  10.529   6.030   4.065
40340SOL    HW223028  10.474   6.170   4.054
40341SOL     OW23029   9.614   5.783   4.975
40341SOL    HW123030   9.559   5.817   5.048
40341SOL    HW223031   9.584   5.690   4.969
40342SOL     OW23032   9.336   6.902   5.002
40342SOL    HW123033   9.383   6.853   5.073
40342SOL    HW223034   9.357   6.995   5.023
40343SOL     OW23035  10.040   6.240   4.783
40343SOL    HW123036  10.112   6.225   4.720
40343SOL    HW223037  10.002   6.327   4.758
40344SOL     OW23038   9.625   5.657   4.330
40344SOL    HW123039   9.590   5.746   4.352
40344SOL    HW223040   9.617   5.612   4.416
40345SOL     OW23041  10.916   5.969   4.050
40345SOL    HW123042  10.953   5.907   4.113
40345SOL    HW223043  10.897   6.046   4.107
40346SOL     OW23044  10.364   6.327   4.683
40346SOL    HW123045  10.356   6.338   4.779
40346SOL    HW223046  10.324   6.239   4.670
40347SOL     OW23047  10.296   7.150   5.436
40347SOL    HW123048  10.281   7.201   5.354
40347SOL    HW223049  10.321   7.062   5.401
40348SOL     OW23050   9.656   6.493   5.527
40348SOL    HW123051   9.735   6.522   5.574
40348SOL    HW223052   9.690   6.419   5.473
40349SOL     OW23053  10.804   5.848   3.829
40349SOL    HW123054  10.732   5.802   3.876
40349SOL    HW223055  10.850   5.894   3.902
40350SOL     OW23056  10.595   6.425   3.755
40350SOL    HW123057  10.648   6.345   3.771
40350SOL    HW223058  10.628   6.452   3.667
40351SOL     OW23059  10.382   6.947   4.577
40351SOL    HW123060  10.386   6.874   4.512
40351SOL    HW223061  10.450   7.010   4.545
40352SOL     OW23062   9.597   6.413   4.725
40352SOL    HW123063   9.690   6.433   4.706
40352SOL    HW223064   9.602   6.321   4.754
40353SOL     OW23065   9.641   6.124   4.735
40353SOL    HW123066   9.609   6.032   4.721
40353SOL    HW223067   9.703   6.133   4.660
40354SOL     OW23068  10.448   5.955   5.401
40354SOL    HW123069  10.410   6.009   5.472
40354SOL    HW223070  10.537   5.994   5.392
40355SOL     OW23071  10.471   5.780   5.200
40355SOL    HW123072  10.466   5.849   5.269
40355SOL    HW223073  10.508   5.831   5.126
40356SOL     OW23074   9.308   6.910   3.921
40356SOL    HW123075   9.216   6.925   3.889
40356SOL    HW223076   9.305   6.816   3.949
40357SOL     OW23077   9.407   7.358   4.667
40357SOL    HW123078   9.376   7.279   4.618
40357SOL    HW223079   9.500   7.365   4.638
40358SOL     OW23080   9.783   7.186   4.631
40358SOL    HW123081   9.851   7.247   4.665
40358SOL    HW223082   9.838   7.111   4.602
40359SOL     OW23083  10.295   6.354   4.944
40359SOL    HW123084  10.329   6.327   5.031
40359SOL    HW223085  10.200   6.346   4.956
40360SOL     OW23086   9.331   6.106   4.836
40360SOL    HW123087   9.410   6.091   4.783
40360SOL    HW223088   9.367   6.132   4.921
40361SOL     OW23089   9.541   6.100   5.437
40361SOL    HW123090   9.579   6.051   5.363
40361SOL    HW223091   9.497   6.174   5.394
40362SOL     OW23092  10.703   6.517   5.375
40362SOL    HW123093  10.714   6.613   5.385
40362SOL    HW223094  10.685   6.508   5.280
40363SOL     OW23095  10.118   6.156   4.100
40363SOL    HW123096  10.123   6.086   4.033
40363SOL    HW223097  10.042   6.208   4.071
40364SOL     OW23098   9.539   7.116   5.463
40364SOL    HW123099   9.551   7.189   5.524
40364SOL    HW223100   9.559   7.038   5.517
40365SOL     OW23101  10.004   6.058   4.987
40365SOL    HW123102   9.954   5.986   4.945
40365SOL    HW223103  10.002   6.127   4.917
40366SOL     OW23104  10.241   7.279   5.201
40366SOL    HW123105  10.202   7.247   5.118
40366SOL    HW223106  10.232   7.376   5.191
40367SOL     OW23107   9.749   6.060   3.921
40367SOL    HW123108   9.818   6.127   3.929
40367SOL    HW223109   9.668   6.115   3.917
40368SOL     OW23110   9.423   6.722   5.190
40368SOL    HW123111   9.433   6.664   5.268
40368SOL    HW223112   9.449   6.663   5.117
40369SOL     OW23113  10.612   6.632   4.941
40369SOL    HW123114  10.639   6.577   4.865
40369SOL    HW223115  10.554   6.700   4.899
40370SOL     OW23116  10.619   6.443   4.032
40370SOL    HW123117  10.541   6.408   4.076
40370SOL    HW223118  10.592   6.449   3.939
40371SOL     OW23119  11.040   7.336   4.856
40371SOL    HW123120   0.014   7.357   4.797
40371SOL    HW223121  11.023   7.241   4.837
40372SOL     OW23122  10.565   7.311   4.839
40372SOL    HW123123  10.650   7.321   4.792
40372SOL    HW223124  10.565   7.215   4.857
40373SOL     OW23125   9.406   6.850   4.752
40373SOL    HW123126   9.380   6.871   4.845
40373SOL    HW223127   9.334   6.793   4.724
40374SOL     OW23128  10.002   7.231   5.460
40374SOL    HW123129   9.946   7.308   5.444
40374SOL    HW223130  10.076   7.247   5.400
40375SOL     OW23131  11.036   5.715   4.265
40375SOL    HW123132  11.092   5.713   4.185
40375SOL    HW223133  11.039   5.623   4.298
40376SOL     OW23134  10.687   7.169   4.223
40376SOL    HW123135  10.743   7.185   4.144
40376SOL    HW223136  10.635   7.251   4.230
40377SOL     OW23137   9.463   7.388   5.545
40377SOL    HW123138   9.421   7.311   5.589
40377SOL    HW223139   9.508   7.429   5.621
40378SOL     OW23140  10.568   6.504   4.385
40378SOL    HW123141  10.645   6.445   4.401
40378SOL    HW223142  10.612   6.579   4.341
40379SOL     OW23143  10.103   6.851   5.127
40379SOL    HW123144  10.080   6.901   5.208
40379SOL    HW223145  10.021   6.860   5.076
40380SOL     OW23146   9.980   7.208   3.878
40380SOL    HW123147   9.998   7.220   3.783
40380SOL    HW223148   9.922   7.129   3.875
40381SOL     OW23149   9.554   5.904   4.430
40381SOL    HW123150   9.467   5.943   4.410
40381SOL    HW223151   9.559   5.913   4.526
40382SOL     OW23152  10.511   7.217   3.747
40382SOL    HW123153  10.517   7.123   3.771
40382SOL    HW223154  10.447   7.216   3.674
40383SOL     OW23155  10.144   6.591   5.090
40383SOL    HW123156  10.186   6.600   5.004
40383SOL    HW223157  10.128   6.685   5.114
40384SOL     OW23158  10.224   6.501   3.993
40384SOL    HW123159  10.299   6.540   3.944
40384SOL    HW223160  10.264   6.424   4.037
40385SOL     OW23161  10.816   7.250   3.752
40385SOL    HW123162  10.723   7.227   3.742
40385SOL    HW223163  10.852   7.236   3.662
40386SOL     OW23164   9.676   6.830   5.211
40386SOL    HW123165   9.678   6.921   5.174
40386SOL    HW223166   9.583   6.805   5.200
40387SOL     OW23167  10.887   6.877   5.007
40387SOL    HW123168  10.958   6.864   5.071
40387SOL    HW223169  10.832   6.944   5.052
40388SOL     OW23170  10.367   6.698   4.451
40388SOL    HW123171  10.295   6.646   4.488
40388SOL    HW223172  10.432   6.630   4.427
40389SOL     OW23173  10.334   5.814   4.711
40389SOL    HW123174  10.331   5.768   4.625
40389SOL    HW223175  10.347   5.738   4.772
40390SOL     OW23176   9.933   7.075   4.218
40390SOL    HW123177   9.990   7.036   4.150
40390SOL    HW223178   9.854   7.098   4.167
40391SOL     OW23179   9.560   6.962   3.993
40391SOL    HW123180   9.464   6.944   3.984
40391SOL    HW223181   9.565   6.986   4.089
40392SOL     OW23182   9.432   6.584   5.418
40392SOL    HW123183   9.363   6.578   5.486
40392SOL    HW223184   9.514   6.562   5.468
40393SOL     OW23185   9.981   5.771   5.205
40393SOL    HW123186  10.067   5.755   5.162
40393SOL    HW223187  10.007   5.818   5.286
40394SOL     OW23188   9.404   5.928   3.761
40394SOL    HW123189   9.312   5.920   3.733
40394SOL    HW223190   9.434   6.003   3.707
40395SOL     OW23191  10.721   6.446   5.108
40395SOL    HW123192  10.672   6.505   5.047
40395SOL    HW223193  10.812   6.465   5.086
40396SOL     OW23194   9.347   5.753   4.024
40396SOL    HW123195   9.337   5.842   3.988
40396SOL    HW223196   9.429   5.724   3.980
40397SOL     OW23197  10.511   6.941   3.828
40397SOL    HW123198  10.419   6.911   3.826
40397SOL    HW223199  10.529   6.946   3.925
40398SOL     OW23200   9.932   6.399   5.161
40398SOL    HW123201   9.987   6.478   5.150
40398SOL    HW223202  10.001   6.331   5.171
40399SOL     OW23203  10.800   7.351   4.692
40399SOL    HW123204  10.837   7.377   4.607
40399SOL    HW223205  10.878   7.352   4.749
40400SOL     OW23206  10.060   6.122   5.449
40400SOL    HW123207  10.092   6.203   5.493
40400SOL    HW223208  10.102   6.051   5.498
40401SOL     OW23209  10.782   6.784   5.344
40401SOL    HW123210  10.770   6.786   5.442
40401SOL    HW223211  10.879   6.794   5.337
40402SOL     OW23212   9.690   7.343   5.298
40402SOL    HW123213   9.600   7.377   5.287
40402SOL    HW223214   9.680   7.250   5.270
40403SOL     OW23215  11.002   6.458   4.950
40403SOL    HW123216  11.003   6.383   4.888
40403SOL    HW223217  10.967   6.531   4.895
40404SOL     OW23218  10.518   5.900   4.197
40404SOL    HW123219  10.589   5.835   4.180
40404SOL    HW223220  10.558   5.954   4.269
40405SOL     OW23221   9.897   6.323   4.378
40405SOL    HW123222   9.937   6.410   4.367
40405SOL    HW223223   9.820   6.327   4.320
40406SOL     OW23224  11.058   5.961   5.357
40406SOL    HW123225  11.020   6.023   5.293
40406SOL    HW223226  10.980   5.919   5.398
40407SOL     OW23227  11.041   6.509   5.211
40407SOL    HW123228  11.038   6.605   5.210
40407SOL    HW223229  11.035   6.484   5.116
40408SOL     OW23230  10.188   6.943   3.759
40408SOL    HW123231  10.152   6.961   3.847
40408SOL    HW223232  10.197   7.032   3.719
40409SOL     OW23233   9.964   7.391   4.625
40409SOL    HW123234   9.967   7.488   4.626
40409SOL    HW223235  10.054   7.365   4.650
40410SOL     OW23236  10.188   6.525   4.569
40410SOL    HW123237  10.243   6.457   4.611
40410SOL    HW223238  10.162   6.581   4.644
40411SOL     OW23239  10.415   6.598   3.824
40411SOL    HW123240  10.382   6.637   3.742
40411SOL    HW223241  10.484   6.537   3.790
40412SOL     OW23242   0.059   7.136   4.568
40412SOL    HW123243  11.083   7.115   4.514
40412SOL    HW223244   0.072   7.053   4.615
40413SOL     OW23245   9.558   6.887   5.601
40413SOL    HW123246   9.478   6.840   5.574
40413SOL    HW223247   9.543   6.896   5.697
40414SOL     OW23248   9.416   6.833   4.384
40414SOL    HW123249   9.418   6.789   4.470
40414SOL    HW223250   9.484   6.784   4.336
40415SOL     OW23251   9.989   6.988   5.334
40415SOL    HW123252   9.911   6.936   5.363
40415SOL    HW223253   9.974   7.072   5.381
40416SOL     OW23254   0.011   5.761   4.929
40416SOL    HW123255   0.017   5.673   4.968
40416SOL    HW223256  11.095   5.741   4.836
40417SOL     OW23257   9.729   6.035   4.252
40417SOL    HW123258   9.786   5.970   4.209
40417SOL    HW223259   9.688   5.984   4.324
40418SOL     OW23260  10.975   7.082   4.821
40418SOL    HW123261  10.906   7.048   4.763
40418SOL    HW223262  10.990   7.007   4.881
40419SOL     OW23263   9.638   6.120   5.011
40419SOL    HW123264   9.711   6.077   5.058
40419SOL    HW223265   9.657   6.102   4.917
40420SOL     OW23266  10.134   7.168   4.409
40420SOL    HW123267  10.118   7.192   4.317
40420SOL    HW223268  10.049   7.127   4.432
40421SOL     OW23269  10.730   5.828   4.825
40421SOL    HW123270  10.766   5.752   4.872
40421SOL    HW223271  10.691   5.880   4.898
40422SOL     OW23272  10.334   5.585   4.876
40422SOL    HW123273  10.280   5.514   4.839
40422SOL    HW223274  10.425   5.549   4.866
40423SOL     OW23275  10.102   6.933   4.038
40423SOL    HW123276  10.064   6.843   4.040
40423SOL    HW223277  10.181   6.922   4.093
40424SOL     OW23278   9.908   7.140   4.943
40424SOL    HW123279   9.842   7.158   5.014
40424SOL    HW223280   9.987   7.182   4.977
40425SOL     OW23281  10.625   5.640   3.877
40425SOL    HW123282  10.647   5.552   3.843
40425SOL    HW223283  10.542   5.621   3.924
40426SOL     OW23284  10.625   6.053   4.399
40426SOL    HW123285  10.562   6.126   4.396
40426SOL    HW223286  10.615   6.020   4.490
40427SOL     OW23287  10.917   5.763   4.601
40427SOL    HW123288  10.838   5.765   4.656
40427SOL    HW223289  10.907   5.843   4.550
40428SOL     OW23290   9.355   6.656   4.025
40428SOL    HW123291   9.447   6.649   3.994
40428SOL    HW223292   9.338   6.564   4.054
40429SOL     OW23293  10.195   7.236   4.067
40429SOL    HW123294  10.119   7.217   4.010
40429SOL    HW223295  10.169   7.318   4.114
40430SOL     OW23296   9.537   6.225   5.725
40430SOL    HW123297   9.444   6.208   5.745
40430SOL    HW223298   9.545   6.204   5.631
40431SOL     OW23299   9.538   5.874   6.593
40431SOL    HW123300   9.565   5.848   6.684
40431SOL    HW223301   9.453   5.826   6.585
40432SOL     OW23302   9.312   5.982   6.198
40432SOL    HW123303   9.234   6.006   6.251
40432SOL    HW223304   9.287   5.896   6.164
40433SOL     OW23305   9.875   6.881   6.780
40433SOL    HW123306   9.787   6.872   6.741
40433SOL    HW223307   9.880   6.975   6.802
40434SOL     OW23308  10.885   7.113   6.298
40434SOL    HW123309  10.849   7.077   6.381
40434SOL    HW223310  10.818   7.087   6.232
40435SOL     OW23311  10.449   6.271   6.292
40435SOL    HW123312  10.482   6.361   6.273
40435SOL    HW223313  10.411   6.285   6.381
40436SOL     OW23314  11.080   6.185   5.819
40436SOL    HW123315  11.054   6.190   5.726
40436SOL    HW223316  11.038   6.103   5.848
40437SOL     OW23317  10.042   6.748   6.615
40437SOL    HW123318   9.983   6.790   6.681
40437SOL    HW223319  10.075   6.826   6.568
40438SOL     OW23320  10.177   6.345   7.399
40438SOL    HW123321  10.156   6.405   7.471
40438SOL    HW223322  10.189   6.403   7.322
40439SOL     OW23323   9.999   6.619   6.243
40439SOL    HW123324  10.060   6.591   6.313
40439SOL    HW223325   9.930   6.666   6.293
40440SOL     OW23326  10.020   6.744   7.389
40440SOL    HW123327  10.069   6.824   7.415
40440SOL    HW223328   9.937   6.780   7.354
40441SOL     OW23329   9.629   7.016   6.660
40441SOL    HW123330   9.560   6.969   6.611
40441SOL    HW223331   9.678   7.066   6.592
40442SOL     OW23332  10.764   7.088   6.980
40442SOL    HW123333  10.795   7.177   6.994
40442SOL    HW223334  10.682   7.088   7.033
40443SOL     OW23335   9.750   5.986   7.104
40443SOL    HW123336   9.827   5.928   7.093
40443SOL    HW223337   9.675   5.927   7.086
40444SOL     OW23338   9.531   7.304   6.059
40444SOL    HW123339   9.563   7.384   6.107
40444SOL    HW223340   9.592   7.301   5.984
40445SOL     OW23341  10.437   6.927   7.255
40445SOL    HW123342  10.483   6.929   7.340
40445SOL    HW223343  10.388   6.843   7.260
40446SOL     OW23344   9.562   7.017   6.113
40446SOL    HW123345   9.555   7.114   6.124
40446SOL    HW223346   9.493   6.985   6.173
40447SOL     OW23347   9.581   6.678   6.493
40447SOL    HW123348   9.581   6.599   6.549
40447SOL    HW223349   9.526   6.740   6.544
40448SOL     OW23350   9.902   7.389   6.991
40448SOL    HW123351   9.830   7.360   7.049
40448SOL    HW223352   9.924   7.477   7.026
40449SOL     OW23353   9.883   6.576   5.691
40449SOL    HW123354   9.936   6.624   5.624
40449SOL    HW223355   9.922   6.611   5.774
40450SOL     OW23356  10.957   5.667   7.098
40450SOL    HW123357  10.931   5.725   7.026
40450SOL    HW223358  10.925   5.714   7.176
40451SOL     OW23359   9.421   6.238   6.149
40451SOL    HW123360   9.392   6.146   6.164
40451SOL    HW223361   9.418   6.276   6.239
40452SOL     OW23362   9.374   7.191   5.710
40452SOL    HW123363   9.361   7.097   5.728
40452SOL    HW223364   9.339   7.233   5.790
40453SOL     OW23365  10.984   6.547   6.200
40453SOL    HW123366  11.059   6.498   6.237
40453SOL    HW223367  11.012   6.561   6.109
40454SOL     OW23368   9.435   6.332   7.166
40454SOL    HW123369   9.529   6.351   7.153
40454SOL    HW223370   9.405   6.413   7.209
40455SOL     OW23371   9.898   6.996   6.349
40455SOL    HW123372   9.862   6.905   6.361
40455SOL    HW223373   9.889   7.004   6.252
40456SOL     OW23374  10.601   6.826   7.014
40456SOL    HW123375  10.617   6.750   6.955
40456SOL    HW223376  10.667   6.814   7.085
40457SOL     OW23377  10.138   5.593   6.075
40457SOL    HW123378  10.171   5.685   6.080
40457SOL    HW223379  10.042   5.605   6.089
40458SOL     OW23380   9.488   6.559   6.848
40458SOL    HW123381   9.579   6.525   6.838
40458SOL    HW223382   9.436   6.493   6.801
40459SOL     OW23383  10.837   6.585   5.791
40459SOL    HW123384  10.768   6.535   5.839
40459SOL    HW223385  10.914   6.573   5.847
40460SOL     OW23386  10.498   7.397   7.190
40460SOL    HW123387  10.489   7.458   7.116
40460SOL    HW223388  10.508   7.311   7.146
40461SOL     OW23389   9.649   5.816   7.357
40461SOL    HW123390   9.704   5.889   7.386
40461SOL    HW223391   9.562   5.840   7.394
40462SOL     OW23392  10.763   7.013   6.529
40462SOL    HW123393  10.709   7.034   6.608
40462SOL    HW223394  10.741   6.919   6.514
40463SOL     OW23395  10.994   7.305   6.148
40463SOL    HW123396  10.941   7.257   6.084
40463SOL    HW223397  10.982   7.249   6.227
40464SOL     OW23398   9.904   6.290   5.847
40464SOL    HW123399   9.901   6.378   5.807
40464SOL    HW223400   9.834   6.294   5.915
40465SOL     OW23401  10.577   5.937   6.498
40465SOL    HW123402  10.489   5.900   6.515
40465SOL    HW223403  10.630   5.893   6.568
40466SOL     OW23404  10.861   7.220   5.879
40466SOL    HW123405  10.944   7.267   5.884
40466SOL    HW223406  10.845   7.220   5.782
40467SOL     OW23407  10.104   6.202   7.056
40467SOL    HW123408  10.086   6.166   7.146
40467SOL    HW223409  10.051   6.144   6.999
40468SOL     OW23410  10.699   6.070   7.258
40468SOL    HW123411  10.697   6.129   7.337
40468SOL    HW223412  10.750   5.994   7.291
40469SOL     OW23413  10.248   6.478   7.173
40469SOL    HW123414  10.290   6.395   7.140
40469SOL    HW223415  10.209   6.512   7.091
40470SOL     OW23416  10.312   5.997   6.801
40470SOL    HW123417  10.252   5.985   6.875
40470SOL    HW223418  10.290   5.923   6.743
40471SOL     OW23419  10.349   6.276   6.000
40471SOL    HW123420  10.362   6.289   6.096
40471SOL    HW223421  10.264   6.227   5.998
40472SOL     OW23422   9.417   6.390   6.381
40472SOL    HW123423   9.489   6.400   6.446
40472SOL    HW223424   9.367   6.471   6.394
40473SOL     OW23425   9.420   7.435   7.154
40473SOL    HW123426   9.435   7.413   7.249
40473SOL    HW223427   9.325   7.419   7.144
40474SOL     OW23428  10.204   5.956   5.795
40474SOL    HW123429  10.236   6.022   5.731
40474SOL    HW223430  10.265   5.884   5.778
40475SOL     OW23431  11.019   6.175   7.421
40475SOL    HW123432  10.981   6.248   7.366
40475SOL    HW223433  11.061   6.121   7.352
40476SOL     OW23434  10.678   6.744   6.173
40476SOL    HW123435  10.732   6.737   6.093
40476SOL    HW223436  10.610   6.806   6.144
40477SOL     OW23437   9.851   5.783   6.480
40477SOL    HW123438   9.858   5.798   6.576
40477SOL    HW223439   9.844   5.873   6.445
40478SOL     OW23440  10.335   7.049   6.077
40478SOL    HW123441  10.294   7.112   6.016
40478SOL    HW223442  10.309   7.083   6.163
40479SOL     OW23443   9.648   7.395   6.435
40479SOL    HW123444   9.700   7.314   6.452
40479SOL    HW223445   9.710   7.464   6.461
40480SOL     OW23446  11.094   6.609   6.467
40480SOL    HW123447  11.035   6.643   6.398
40480SOL    HW223448  11.041   6.613   6.548
40481SOL     OW23449  10.525   7.130   7.089
40481SOL    HW123450  10.504   7.059   7.153
40481SOL    HW223451  10.473   7.101   7.012
40482SOL     OW23452   9.617   6.535   5.845
40482SOL    HW123453   9.692   6.566   5.791
40482SOL    HW223454   9.594   6.452   5.801
40483SOL     OW23455  10.767   6.345   6.314
40483SOL    HW123456  10.759   6.295   6.397
40483SOL    HW223457  10.851   6.390   6.323
40484SOL     OW23458   9.773   6.853   7.308
40484SOL    HW123459   9.729   6.860   7.220
40484SOL    HW223460   9.695   6.855   7.366
40485SOL     OW23461  10.428   7.357   5.829
40485SOL    HW123462  10.356   7.306   5.871
40485SOL    HW223463  10.445   7.308   5.746
40486SOL     OW23464   9.481   5.879   7.086
40486SOL    HW123465   9.402   5.922   7.121
40486SOL    HW223466   9.487   5.798   7.139
40487SOL     OW23467   9.763   7.327   5.903
40487SOL    HW123468   9.812   7.374   5.973
40487SOL    HW223469   9.834   7.295   5.846
40488SOL     OW23470  10.725   5.708   6.036
40488SOL    HW123471  10.715   5.669   5.947
40488SOL    HW223472  10.820   5.698   6.053
40489SOL     OW23473   9.557   7.381   6.815
40489SOL    HW123474   9.612   7.314   6.856
40489SOL    HW223475   9.542   7.345   6.726
40490SOL     OW23476  10.282   7.292   6.459
40490SOL    HW123477  10.364   7.241   6.466
40490SOL    HW223478  10.231   7.239   6.394
40491SOL     OW23479   9.700   6.279   6.045
40491SOL    HW123480   9.720   6.187   6.071
40491SOL    HW223481   9.605   6.283   6.063
40492SOL     OW23482  10.841   5.813   7.320
40492SOL    HW123483  10.829   5.826   7.416
40492SOL    HW223484  10.775   5.745   7.303
40493SOL     OW23485   9.940   5.719   5.691
40493SOL    HW123486  10.018   5.675   5.727
40493SOL    HW223487   9.906   5.657   5.625
40494SOL     OW23488  10.074   5.850   7.335
40494SOL    HW123489  10.152   5.790   7.339
40494SOL    HW223490  10.023   5.825   7.413
40495SOL     OW23491  10.196   7.132   6.776
40495SOL    HW123492  10.184   7.101   6.684
40495SOL    HW223493  10.249   7.062   6.816
40496SOL     OW23494  10.628   6.181   7.018
40496SOL    HW123495  10.665   6.146   7.102
40496SOL    HW223496  10.666   6.270   7.011
40497SOL     OW23497  10.124   6.998   6.515
40497SOL    HW123498  10.210   6.981   6.470
40497SOL    HW223499  10.062   7.003   6.441
40498SOL     OW23500  10.239   6.101   6.498
40498SOL    HW123501  10.219   6.093   6.401
40498SOL    HW223502  10.268   6.011   6.519
40499SOL     OW23503   9.871   5.639   6.087
40499SOL    HW123504   9.797   5.644   6.150
40499SOL    HW223505   9.851   5.717   6.029
40500SOL     OW23506  10.754   6.758   5.606
40500SOL    HW123507  10.779   6.689   5.670
40500SOL    HW223508  10.672   6.792   5.644
40501SOL     OW23509   9.593   5.635   5.774
40501SOL    HW123510   9.651   5.710   5.759
40501SOL    HW223511   9.654   5.571   5.817
40502SOL     OW23512  10.245   5.842   6.093
40502SOL    HW123513  10.219   5.886   6.010
40502SOL    HW223514  10.342   5.855   6.091
40503SOL     OW23515  10.365   6.265   7.057
40503SOL    HW123516  10.294   6.200   7.069
40503SOL    HW223517  10.446   6.211   7.063
40504SOL     OW23518  10.544   7.166   6.377
40504SOL    HW123519  10.554   7.231   6.306
40504SOL    HW223520  10.630   7.170   6.421
40505SOL     OW23521   9.785   6.755   6.331
40505SOL    HW123522   9.714   6.720   6.389
40505SOL    HW223523   9.747   6.736   6.242
40506SOL     OW23524  10.582   7.403   6.179
40506SOL    HW123525  10.627   7.465   6.119
40506SOL    HW223526  10.548   7.462   6.247
40507SOL     OW23527  10.343   6.117   5.609
40507SOL    HW123528  10.308   6.205   5.584
40507SOL    HW223529  10.417   6.139   5.669
40508SOL     OW23530   9.375   6.143   6.983
40508SOL    HW123531   9.468   6.118   6.971
40508SOL    HW223532   9.383   6.222   7.041
40509SOL     OW23533   9.869   5.822   6.751
40509SOL    HW123534   9.918   5.751   6.795
40509SOL    HW223535   9.780   5.810   6.789
40510SOL     OW23536  10.183   6.063   6.246
40510SOL    HW123537  10.145   6.102   6.166
40510SOL    HW223538  10.208   5.974   6.215
40511SOL     OW23539  10.376   5.659   6.354
40511SOL    HW123540  10.325   5.658   6.272
40511SOL    HW223541  10.343   5.579   6.399
40512SOL     OW23542  10.738   6.747   6.472
40512SOL    HW123543  10.706   6.659   6.496
40512SOL    HW223544  10.719   6.750   6.377
40513SOL     OW23545  10.768   6.180   6.581
40513SOL    HW123546  10.710   6.102   6.582
40513SOL    HW223547  10.853   6.144   6.608
40514SOL     OW23548   0.004   6.411   5.965
40514SOL    HW123549   0.059   6.365   6.032
40514SOL    HW223550  -0.000   6.340   5.897
40515SOL     OW23551   9.803   7.005   5.717
40515SOL    HW123552   9.719   6.991   5.763
40515SOL    HW223553   9.795   6.946   5.641
40516SOL     OW23554  10.698   6.186   5.652
40516SOL    HW123555  10.643   6.152   5.726
40516SOL    HW223556  10.787   6.173   5.686
40517SOL     OW23557   9.812   5.821   5.905
40517SOL    HW123558   9.864   5.791   5.827
40517SOL    HW223559   9.782   5.908   5.873
40518SOL     OW23560  11.028   6.816   7.160
40518SOL    HW123561   0.017   6.788   7.182
40518SOL    HW223562  11.034   6.912   7.165
40519SOL     OW23563  10.383   6.947   6.915
40519SOL    HW123564  10.305   6.909   6.957
40519SOL    HW223565  10.455   6.899   6.962
40520SOL     OW23566  10.932   7.206   7.221
40520SOL    HW123567  10.940   7.259   7.141
40520SOL    HW223568  11.022   7.172   7.231
40521SOL     OW23569  10.443   6.801   6.674
40521SOL    HW123570  10.377   6.828   6.738
40521SOL    HW223571  10.417   6.849   6.595
40522SOL     OW23572  10.941   6.693   6.683
40522SOL    HW123573  10.919   6.753   6.757
40522SOL    HW223574  10.876   6.722   6.617
40523SOL     OW23575  10.223   5.746   6.990
40523SOL    HW123576  10.217   5.649   6.986
40523SOL    HW223577  10.315   5.757   7.022
40524SOL     OW23578  10.304   6.700   7.313
40524SOL    HW123579  10.216   6.719   7.350
40524SOL    HW223580  10.287   6.621   7.258
40525SOL     OW23581  10.013   6.643   5.929
40525SOL    HW123582  10.010   6.629   6.025
40525SOL    HW223583  10.090   6.590   5.903
40526SOL     OW23584   9.724   6.393   6.854
40526SOL    HW123585   9.801   6.389   6.914
40526SOL    HW223586   9.687   6.304   6.862
40527SOL     OW23587  10.590   5.971   6.855
40527SOL    HW123588  10.611   6.049   6.911
40527SOL    HW223589  10.497   5.988   6.831
40528SOL     OW23590   9.384   7.157   6.926
40528SOL    HW123591   9.380   7.251   6.903
40528SOL    HW223592   9.481   7.139   6.923
40529SOL     OW23593   9.688   6.700   6.090
40529SOL    HW123594   9.691   6.762   6.016
40529SOL    HW223595   9.682   6.615   6.044
40530SOL     OW23596   9.841   6.127   6.427
40530SOL    HW123597   9.865   6.193   6.358
40530SOL    HW223598   9.917   6.132   6.487
40531SOL     OW23599  10.554   6.971   5.947
40531SOL    HW123600  10.612   7.032   5.997
40531SOL    HW223601  10.469   6.987   5.992
40532SOL     OW23602  10.614   7.059   6.752
40532SOL    HW123603  10.679   7.056   6.824
40532SOL    HW223604  10.550   6.991   6.778
40533SOL     OW23605  10.887   6.213   6.065
40533SOL    HW123606  10.828   6.261   6.125
40533SOL    HW223607  10.953   6.279   6.042
40534SOL     OW23608   9.646   7.103   6.904
40534SOL    HW123609   9.636   7.065   6.814
40534SOL    HW223610   9.741   7.126   6.902
40535SOL     OW23611   9.750   6.314   7.205
40535SOL    HW123612   9.808   6.359   7.142
40535SOL    HW223613   9.786   6.224   7.204
40536SOL     OW23614  10.931   6.359   7.252
40536SOL    HW123615  10.841   6.395   7.260
40536SOL    HW223616  10.973   6.424   7.193
40537SOL     OW23617  10.287   5.689   7.327
40537SOL    HW123618  10.356   5.755   7.308
40537SOL    HW223619  10.315   5.615   7.271
40538SOL     OW23620   9.812   5.584   7.346
40538SOL    HW123621   9.768   5.533   7.276
40538SOL    HW223622   9.759   5.666   7.343
40539SOL     OW23623   9.871   6.475   6.637
40539SOL    HW123624   9.919   6.559   6.647
40539SOL    HW223625   9.828   6.463   6.724
40540SOL     OW23626  10.697   6.453   6.607
40540SOL    HW123627  10.607   6.423   6.590
40540SOL    HW223628  10.741   6.366   6.617
40541SOL     OW23629  10.523   6.111   5.851
40541SOL    HW123630  10.532   6.037   5.914
40541SOL    HW223631  10.472   6.175   5.903
40542SOL     OW23632   9.614   5.787   6.839
40542SOL    HW123633   9.565   5.817   6.918
40542SOL    HW223634   9.588   5.693   6.836
40543SOL     OW23635   9.340   6.892   6.870
40543SOL    HW123636   9.371   6.836   6.944
40543SOL    HW223637   9.353   6.983   6.903
40544SOL     OW23638  10.051   6.234   6.647
40544SOL    HW123639  10.119   6.194   6.590
40544SOL    HW223640  10.018   6.312   6.599
40545SOL     OW23641   9.623   5.648   6.200
40545SOL    HW123642   9.591   5.737   6.223
40545SOL    HW223643   9.629   5.606   6.288
40546SOL     OW23644  10.926   5.973   5.929
40546SOL    HW123645  10.954   5.909   5.995
40546SOL    HW223646  10.907   6.052   5.984
40547SOL     OW23647  10.353   6.336   6.541
40547SOL    HW123648  10.342   6.353   6.636
40547SOL    HW223649  10.320   6.244   6.535
40548SOL     OW23650  10.296   7.149   7.296
40548SOL    HW123651  10.291   7.198   7.212
40548SOL    HW223652  10.328   7.062   7.267
40549SOL     OW23653   9.661   6.491   7.381
40549SOL    HW123654   9.742   6.510   7.432
40549SOL    HW223655   9.688   6.413   7.328
40550SOL     OW23656  10.797   5.860   5.719
40550SOL    HW123657  10.742   5.793   5.762
40550SOL    HW223658  10.843   5.902   5.794
40551SOL     OW23659  10.608   6.439   5.612
40551SOL    HW123660  10.647   6.351   5.624
40551SOL    HW223661  10.645   6.466   5.525
40552SOL     OW23662  10.374   6.946   6.437
40552SOL    HW123663  10.384   6.870   6.376
40552SOL    HW223664  10.446   7.006   6.410
40553SOL     OW23665   9.592   6.412   6.592
40553SOL    HW123666   9.688   6.424   6.587
40553SOL    HW223667   9.586   6.317   6.613
40554SOL     OW23668   9.630   6.133   6.589
40554SOL    HW123669   9.609   6.037   6.586
40554SOL    HW223670   9.696   6.141   6.518
40555SOL     OW23671  10.446   5.979   7.248
40555SOL    HW123672  10.400   6.019   7.325
40555SOL    HW223673  10.537   6.013   7.260
40556SOL     OW23674  10.476   5.778   7.073
40556SOL    HW123675  10.468   5.854   7.135
40556SOL    HW223676  10.518   5.819   6.996
40557SOL     OW23677   9.312   6.910   5.781
40557SOL    HW123678   9.221   6.926   5.748
40557SOL    HW223679   9.307   6.818   5.813
40558SOL     OW23680   9.406   7.372   6.532
40558SOL    HW123681   9.377   7.300   6.473
40558SOL    HW223682   9.497   7.388   6.499
40559SOL     OW23683   9.794   7.175   6.516
40559SOL    HW123684   9.861   7.245   6.528
40559SOL    HW223685   9.843   7.111   6.461
40560SOL     OW23686  10.297   6.362   6.809
40560SOL    HW123687  10.338   6.328   6.891
40560SOL    HW223688  10.208   6.327   6.818
40561SOL     OW23689   9.334   6.115   6.701
40561SOL    HW123690   9.412   6.101   6.647
40561SOL    HW223691   9.372   6.131   6.789
40562SOL     OW23692   9.531   6.101   7.303
40562SOL    HW123693   9.586   6.055   7.237
40562SOL    HW223694   9.487   6.170   7.250
40563SOL     OW23695  10.705   6.512   7.237
40563SOL    HW123696  10.709   6.608   7.247
40563SOL    HW223697  10.684   6.500   7.143
40564SOL     OW23698  10.114   6.147   5.979
40564SOL    HW123699  10.125   6.082   5.908
40564SOL    HW223700  10.043   6.204   5.944
40565SOL     OW23701   9.560   7.126   7.308
40565SOL    HW123702   9.547   7.192   7.377
40565SOL    HW223703   9.568   7.043   7.359
40566SOL     OW23704   9.975   6.072   6.859
40566SOL    HW123705   9.952   5.987   6.817
40566SOL    HW223706   9.998   6.128   6.783
40567SOL     OW23707  10.248   7.279   7.063
40567SOL    HW123708  10.220   7.245   6.976
40567SOL    HW223709  10.236   7.375   7.053
40568SOL     OW23710   9.749   6.058   5.792
40568SOL    HW123711   9.816   6.129   5.795
40568SOL    HW223712   9.667   6.110   5.787
40569SOL     OW23713   9.421   6.716   7.053
40569SOL    HW123714   9.430   6.660   7.134
40569SOL    HW223715   9.442   6.653   6.981
40570SOL     OW23716  10.613   6.637   6.800
40570SOL    HW123717  10.641   6.579   6.727
40570SOL    HW223718  10.555   6.701   6.755
40571SOL     OW23719  10.619   6.448   5.885
40571SOL    HW123720  10.541   6.411   5.927
40571SOL    HW223721  10.594   6.455   5.791
40572SOL     OW23722  11.035   7.341   6.711
40572SOL    HW123723   0.013   7.359   6.656
40572SOL    HW223724  11.021   7.244   6.700
40573SOL     OW23725  10.562   7.314   6.687
40573SOL    HW123726  10.650   7.324   6.645
40573SOL    HW223727  10.563   7.219   6.710
40574SOL     OW23728   9.409   6.845   6.619
40574SOL    HW123729   9.378   6.861   6.711
40574SOL    HW223730   9.335   6.794   6.582
40575SOL     OW23731  10.003   7.223   7.328
40575SOL    HW123732   9.957   7.306   7.310
40575SOL    HW223733  10.092   7.238   7.292
40576SOL     OW23734  11.040   5.716   6.130
40576SOL    HW123735  11.094   5.717   6.048
40576SOL    HW223736  11.040   5.621   6.156
40577SOL     OW23737  10.689   7.169   6.087
40577SOL    HW123738  10.742   7.189   6.008
40577SOL    HW223739  10.641   7.252   6.105
40578SOL     OW23740   9.465   7.381   7.412
40578SOL    HW123741   9.424   7.310   7.465
40578SOL    HW223742   9.511   7.431   7.481
40579SOL     OW23743  10.561   6.514   6.257
40579SOL    HW123744  10.638   6.456   6.273
40579SOL    HW223745  10.603   6.588   6.208
40580SOL     OW23746  10.116   6.844   7.006
40580SOL    HW123747  10.091   6.884   7.091
40580SOL    HW223748  10.039   6.867   6.952
40581SOL     OW23749   9.982   7.207   5.746
40581SOL    HW123750   9.998   7.218   5.650
40581SOL    HW223751   9.925   7.127   5.745
40582SOL     OW23752   9.555   5.901   6.298
40582SOL    HW123753   9.472   5.944   6.271
40582SOL    HW223754   9.558   5.918   6.394
40583SOL     OW23755  10.515   7.218   5.608
40583SOL    HW123756  10.513   7.125   5.637
40583SOL    HW223757  10.453   7.216   5.533
40584SOL     OW23758  10.143   6.586   6.950
40584SOL    HW123759  10.189   6.589   6.865
40584SOL    HW223760  10.140   6.680   6.975
40585SOL     OW23761  10.218   6.493   5.854
40585SOL    HW123762  10.294   6.529   5.803
40585SOL    HW223763  10.257   6.417   5.900
40586SOL     OW23764  10.822   7.239   5.619
40586SOL    HW123765  10.728   7.220   5.609
40586SOL    HW223766  10.856   7.229   5.528
40587SOL     OW23767   9.653   6.864   7.073
40587SOL    HW123768   9.645   6.933   7.005
40587SOL    HW223769   9.570   6.813   7.063
40588SOL     OW23770  10.883   6.882   6.870
40588SOL    HW123771  10.955   6.867   6.933
40588SOL    HW223772  10.832   6.953   6.914
40589SOL     OW23773  10.363   6.706   6.308
40589SOL    HW123774  10.290   6.657   6.350
40589SOL    HW223775  10.428   6.635   6.292
40590SOL     OW23776  10.338   5.812   6.571
40590SOL    HW123777  10.336   5.763   6.486
40590SOL    HW223778  10.346   5.737   6.635
40591SOL     OW23779   9.930   7.069   6.081
40591SOL    HW123780   9.986   7.031   6.011
40591SOL    HW223781   9.854   7.101   6.032
40592SOL     OW23782   9.558   6.964   5.858
40592SOL    HW123783   9.462   6.950   5.849
40592SOL    HW223784   9.565   6.987   5.954
40593SOL     OW23785   9.436   6.590   7.284
40593SOL    HW123786   9.364   6.580   7.350
40593SOL    HW223787   9.516   6.561   7.333
40594SOL     OW23788   9.969   5.784   7.080
40594SOL    HW123789  10.056   5.770   7.037
40594SOL    HW223790   9.997   5.813   7.168
40595SOL     OW23791   9.418   5.912   5.595
40595SOL    HW123792   9.322   5.924   5.594
40595SOL    HW223793   9.448   5.992   5.548
40596SOL     OW23794  10.715   6.442   6.976
40596SOL    HW123795  10.670   6.502   6.914
40596SOL    HW223796  10.808   6.454   6.952
40597SOL     OW23797   9.359   5.748   5.887
40597SOL    HW123798   9.352   5.836   5.849
40597SOL    HW223799   9.442   5.716   5.849
40598SOL     OW23800  10.492   6.938   5.685
40598SOL    HW123801  10.400   6.907   5.688
40598SOL    HW223802  10.518   6.939   5.780
40599SOL     OW23803   9.933   6.402   7.020
40599SOL    HW123804   9.991   6.479   7.008
40599SOL    HW223805  10.000   6.332   7.033
40600SOL     OW23806  10.796   7.350   6.546
40600SOL    HW123807  10.832   7.377   6.461
40600SOL    HW223808  10.874   7.352   6.603
40601SOL     OW23809  10.052   6.114   7.295
40601SOL    HW123810  10.088   6.171   7.364
40601SOL    HW223811  10.066   6.023   7.328
40602SOL     OW23812  10.773   6.785   7.210
40602SOL    HW123813  10.767   6.784   7.308
40602SOL    HW223814  10.869   6.787   7.195
40603SOL     OW23815   9.680   7.319   7.143
40603SOL    HW123816   9.593   7.362   7.132
40603SOL    HW223817   9.654   7.234   7.184
40604SOL     OW23818  10.996   6.457   6.826
40604SOL    HW123819  11.001   6.380   6.766
40604SOL    HW223820  10.969   6.530   6.768
40605SOL     OW23821  10.511   5.902   6.066
40605SOL    HW123822  10.582   5.837   6.052
40605SOL    HW223823  10.552   5.959   6.135
40606SOL     OW23824   9.894   6.337   6.250
40606SOL    HW123825   9.934   6.424   6.235
40606SOL    HW223826   9.822   6.335   6.185
40607SOL     OW23827  11.063   5.964   7.224
40607SOL    HW123828  11.023   6.019   7.156
40607SOL    HW223829  10.989   5.910   7.256
40608SOL     OW23830  11.053   6.519   7.077
40608SOL    HW123831  11.044   6.616   7.075
40608SOL    HW223832  11.038   6.493   6.984
40609SOL     OW23833  10.175   6.946   5.620
40609SOL    HW123834  10.147   6.964   5.711
40609SOL    HW223835  10.194   7.034   5.583
40610SOL     OW23836   9.954   7.393   6.502
40610SOL    HW123837   9.944   7.489   6.487
40610SOL    HW223838  10.049   7.383   6.518
40611SOL     OW23839  10.187   6.541   6.435
40611SOL    HW123840  10.236   6.466   6.472
40611SOL    HW223841  10.164   6.593   6.513
40612SOL     OW23842  10.408   6.592   5.694
40612SOL    HW123843  10.376   6.637   5.613
40612SOL    HW223844  10.484   6.542   5.658
40613SOL     OW23845   0.058   7.134   6.433
40613SOL    HW123846  11.080   7.118   6.380
40613SOL    HW223847   0.069   7.049   6.477
40614SOL     OW23848   9.549   6.901   7.453
40614SOL    HW123849   9.473   6.844   7.438
40614SOL    HW223850   9.543   6.919   7.548
40615SOL     OW23851   9.398   6.838   6.246
40615SOL    HW123852   9.401   6.785   6.327
40615SOL    HW223853   9.467   6.797   6.193
40616SOL     OW23854   9.978   6.985   7.198
40616SOL    HW123855   9.904   6.933   7.234
40616SOL    HW223856   9.971   7.069   7.247
40617SOL     OW23857   0.009   5.759   6.773
40617SOL    HW123858   0.011   5.675   6.819
40617SOL    HW223859  11.073   5.734   6.688
40618SOL     OW23860   9.741   6.024   6.116
40618SOL    HW123861   9.780   5.953   6.064
40618SOL    HW223862   9.702   5.979   6.193
40619SOL     OW23863  10.982   7.085   6.689
40619SOL    HW123864  10.912   7.053   6.630
40619SOL    HW223865  11.000   7.007   6.744
40620SOL     OW23866   9.643   6.114   6.870
40620SOL    HW123867   9.714   6.077   6.925
40620SOL    HW223868   9.669   6.088   6.780
40621SOL     OW23869  10.136   7.180   6.256
40621SOL    HW123870  10.129   7.215   6.166
40621SOL    HW223871  10.047   7.143   6.268
40622SOL     OW23872  10.738   5.825   6.687
40622SOL    HW123873  10.745   5.739   6.729
40622SOL    HW223874  10.693   5.878   6.757
40623SOL     OW23875  10.349   5.602   6.738
40623SOL    HW123876  10.293   5.535   6.780
40623SOL    HW223877  10.434   5.554   6.730
40624SOL     OW23878  10.101   6.927   5.902
40624SOL    HW123879  10.056   6.841   5.900
40624SOL    HW223880  10.173   6.911   5.964
40625SOL     OW23881   9.906   7.150   6.854
40625SOL    HW123882   9.908   7.234   6.904
40625SOL    HW223883   9.998   7.147   6.824
40626SOL     OW23884  10.660   5.629   5.796
40626SOL    HW123885  10.676   5.581   5.714
40626SOL    HW223886  10.574   5.592   5.824
40627SOL     OW23887  10.631   6.053   6.258
40627SOL    HW123888  10.567   6.127   6.258
40627SOL    HW223889  10.620   6.015   6.347
40628SOL     OW23890  10.920   5.758   6.467
40628SOL    HW123891  10.847   5.767   6.530
40628SOL    HW223892  10.904   5.833   6.409
40629SOL     OW23893   9.354   6.659   5.895
40629SOL    HW123894   9.449   6.646   5.881
40629SOL    HW223895   9.325   6.567   5.910
40630SOL     OW23896  10.193   7.237   5.925
40630SOL    HW123897  10.119   7.219   5.863
40630SOL    HW223898  10.166   7.320   5.970
40631SOL     OW23899   9.537   6.222   7.583
40631SOL    HW123900   9.444   6.214   7.607
40631SOL    HW223901   9.540   6.203   7.488
40632SOL     OW23902   9.524   5.877   8.450
40632SOL    HW123903   9.553   5.852   8.540
40632SOL    HW223904   9.442   5.825   8.441
40633SOL     OW23905   9.317   5.990   8.075
40633SOL    HW123906   9.234   6.012   8.121
40633SOL    HW223907   9.295   5.905   8.035
40634SOL     OW23908   9.880   6.877   8.644
40634SOL    HW123909   9.798   6.872   8.593
40634SOL    HW223910   9.885   6.972   8.663
40635SOL     OW23911  10.871   7.121   8.168
40635SOL    HW123912  10.836   7.077   8.247
40635SOL    HW223913  10.803   7.103   8.100
40636SOL     OW23914  10.459   6.276   8.153
40636SOL    HW123915  10.464   6.369   8.127
40636SOL    HW223916  10.433   6.283   8.246
40637SOL     OW23917  11.080   6.193   7.682
40637SOL    HW123918  11.055   6.186   7.588
40637SOL    HW223919  11.041   6.112   7.719
40638SOL     OW23920  10.035   6.736   8.480
40638SOL    HW123921   9.978   6.784   8.543
40638SOL    HW223922  10.079   6.810   8.434
40639SOL     OW23923  10.188   6.348   9.262
40639SOL    HW123924  10.170   6.419   9.325
40639SOL    HW223925  10.200   6.395   9.177
40640SOL     OW23926  10.004   6.627   8.106
40640SOL    HW123927  10.064   6.586   8.171
40640SOL    HW223928   9.936   6.668   8.163
40641SOL     OW23929  10.002   6.769   9.234
40641SOL    HW123930  10.056   6.832   9.286
40641SOL    HW223931  10.007   6.811   9.146
40642SOL     OW23932   9.628   7.012   8.519
40642SOL    HW123933   9.558   6.968   8.468
40642SOL    HW223934   9.674   7.067   8.453
40643SOL     OW23935  10.767   7.083   8.847
40643SOL    HW123936  10.803   7.171   8.840
40643SOL    HW223937  10.682   7.100   8.892
40644SOL     OW23938   9.735   5.986   8.968
40644SOL    HW123939   9.815   5.931   8.966
40644SOL    HW223940   9.664   5.921   8.952
40645SOL     OW23941   9.537   7.297   7.917
40645SOL    HW123942   9.568   7.374   7.971
40645SOL    HW223943   9.596   7.303   7.840
40646SOL     OW23944  10.448   6.939   9.125
40646SOL    HW123945  10.495   6.920   9.208
40646SOL    HW223946  10.394   6.858   9.117
40647SOL     OW23947   9.567   7.019   7.978
40647SOL    HW123948   9.557   7.116   7.980
40647SOL    HW223949   9.499   6.989   8.040
40648SOL     OW23950   9.570   6.664   8.344
40648SOL    HW123951   9.585   6.593   8.408
40648SOL    HW223952   9.522   6.730   8.398
40649SOL     OW23953   9.903   7.372   8.848
40649SOL    HW123954   9.831   7.352   8.910
40649SOL    HW223955   9.932   7.461   8.874
40650SOL     OW23956   9.878   6.579   7.566
40650SOL    HW123957   9.932   6.626   7.500
40650SOL    HW223958   9.923   6.608   7.649
40651SOL     OW23959  10.919   5.706   8.966
40651SOL    HW123960  10.894   5.733   8.878
40651SOL    HW223961  10.858   5.752   9.025
40652SOL     OW23962   9.429   6.241   8.016
40652SOL    HW123963   9.399   6.149   8.030
40652SOL    HW223964   9.421   6.280   8.105
40653SOL     OW23965   9.373   7.181   7.565
40653SOL    HW123966   9.357   7.086   7.582
40653SOL    HW223967   9.339   7.221   7.647
40654SOL     OW23968  10.999   6.562   8.049
40654SOL    HW123969  11.055   6.484   8.055
40654SOL    HW223970  11.031   6.602   7.967
40655SOL     OW23971   9.437   6.331   9.024
40655SOL    HW123972   9.534   6.341   9.020
40655SOL    HW223973   9.413   6.411   9.075
40656SOL     OW23974   9.903   6.997   8.214
40656SOL    HW123975   9.865   6.907   8.224
40656SOL    HW223976   9.899   7.007   8.117
40657SOL     OW23977  10.589   6.795   8.890
40657SOL    HW123978  10.619   6.737   8.817
40657SOL    HW223979  10.670   6.806   8.943
40658SOL     OW23980  10.136   5.590   7.936
40658SOL    HW123981  10.173   5.681   7.933
40658SOL    HW223982  10.041   5.608   7.948
40659SOL     OW23983   9.491   6.554   8.719
40659SOL    HW123984   9.582   6.523   8.704
40659SOL    HW223985   9.440   6.488   8.670
40660SOL     OW23986  10.829   6.593   7.678
40660SOL    HW123987  10.756   6.539   7.715
40660SOL    HW223988  10.905   6.558   7.723
40661SOL     OW23989  10.495   7.397   9.052
40661SOL    HW123990  10.495   7.470   8.987
40661SOL    HW223991  10.515   7.319   8.999
40662SOL     OW23992   9.641   5.829   9.231
40662SOL    HW123993   9.718   5.872   9.270
40662SOL    HW223994   9.570   5.866   9.284
40663SOL     OW23995  10.764   7.006   8.399
40663SOL    HW123996  10.705   7.028   8.474
40663SOL    HW223997  10.740   6.913   8.379
40664SOL     OW23998  11.025   7.281   8.032
40664SOL    HW123999  10.965   7.271   7.958
40664SOL    HW224000  10.977   7.232   8.102
40665SOL     OW24001   9.902   6.299   7.704
40665SOL    HW124002   9.910   6.387   7.665
40665SOL    HW224003   9.828   6.309   7.766
40666SOL     OW24004  10.571   5.957   8.392
40666SOL    HW124005  10.487   5.908   8.385
40666SOL    HW224006  10.623   5.898   8.449
40667SOL     OW24007  10.853   7.227   7.742
40667SOL    HW124008  10.912   7.303   7.752
40667SOL    HW224009  10.848   7.220   7.644
40668SOL     OW24010  10.107   6.211   8.905
40668SOL    HW124011  10.092   6.174   8.995
40668SOL    HW224012  10.062   6.146   8.848
40669SOL     OW24013  10.708   6.077   9.129
40669SOL    HW124014  10.716   6.120   9.217
40669SOL    HW224015  10.747   5.989   9.146
40670SOL     OW24016  10.254   6.477   9.037
40670SOL    HW124017  10.293   6.393   9.003
40670SOL    HW224018  10.207   6.508   8.956
40671SOL     OW24019  10.315   5.988   8.686
40671SOL    HW124020  10.228   5.992   8.727
40671SOL    HW224021  10.299   5.938   8.604
40672SOL     OW24022  10.318   6.333   7.890
40672SOL    HW124023  10.371   6.304   7.965
40672SOL    HW224024  10.278   6.249   7.862
40673SOL     OW24025   9.405   6.396   8.251
40673SOL    HW124026   9.482   6.399   8.309
40673SOL    HW224027   9.362   6.481   8.271
40674SOL     OW24028   9.418   7.434   9.010
40674SOL    HW124029   9.431   7.415   9.105
40674SOL    HW224030   9.323   7.425   8.999
40675SOL     OW24031  10.203   5.935   7.670
40675SOL    HW124032  10.278   5.996   7.666
40675SOL    HW224033  10.228   5.872   7.601
40676SOL     OW24034  11.013   6.174   9.274
40676SOL    HW124035  10.982   6.254   9.228
40676SOL    HW224036  11.031   6.112   9.201
40677SOL     OW24037  10.683   6.763   8.027
40677SOL    HW124038  10.737   6.747   7.949
40677SOL    HW224039  10.607   6.809   7.990
40678SOL     OW24040   9.849   5.768   8.338
40678SOL    HW124041   9.856   5.795   8.431
40678SOL    HW224042   9.851   5.852   8.291
40679SOL     OW24043  10.341   7.054   7.957
40679SOL    HW124044  10.295   7.107   7.889
40679SOL    HW224045  10.307   7.092   8.038
40680SOL     OW24046   9.648   7.403   8.302
40680SOL    HW124047   9.700   7.322   8.317
40680SOL    HW224048   9.713   7.473   8.321
40681SOL     OW24049  11.088   6.619   8.331
40681SOL    HW124050  11.034   6.640   8.253
40681SOL    HW224051  11.023   6.608   8.403
40682SOL     OW24052  10.525   7.129   8.945
40682SOL    HW124053  10.511   7.059   9.013
40682SOL    HW224054  10.474   7.093   8.871
40683SOL     OW24055   9.616   6.533   7.681
40683SOL    HW124056   9.698   6.559   7.635
40683SOL    HW224057   9.595   6.448   7.639
40684SOL     OW24058  10.780   6.336   8.170
40684SOL    HW124059  10.769   6.284   8.252
40684SOL    HW224060  10.864   6.381   8.182
40685SOL     OW24061  10.421   7.357   7.686
40685SOL    HW124062  10.355   7.301   7.729
40685SOL    HW224063  10.439   7.311   7.602
40686SOL     OW24064   9.470   5.872   8.947
40686SOL    HW124065   9.397   5.919   8.990
40686SOL    HW224066   9.476   5.791   9.000
40687SOL     OW24067   9.769   7.328   7.761
40687SOL    HW124068   9.818   7.374   7.832
40687SOL    HW224069   9.841   7.291   7.707
40688SOL     OW24070  10.734   5.681   7.899
40688SOL    HW124071  10.724   5.660   7.804
40688SOL    HW224072  10.829   5.696   7.910
40689SOL     OW24073   9.555   7.373   8.676
40689SOL    HW124074   9.609   7.303   8.715
40689SOL    HW224075   9.540   7.338   8.586
40690SOL     OW24076  10.281   7.289   8.328
40690SOL    HW124077  10.369   7.250   8.323
40690SOL    HW224078  10.232   7.235   8.263
40691SOL     OW24079   9.706   6.283   7.909
40691SOL    HW124080   9.730   6.192   7.935
40691SOL    HW224081   9.611   6.282   7.928
40692SOL     OW24082  10.807   5.832   9.182
40692SOL    HW124083  10.814   5.842   9.279
40692SOL    HW224084  10.768   5.743   9.177
40693SOL     OW24085   9.929   5.718   7.547
40693SOL    HW124086  10.010   5.673   7.572
40693SOL    HW224087   9.890   5.657   7.481
40694SOL     OW24088  10.073   5.848   9.191
40694SOL    HW124089  10.149   5.786   9.189
40694SOL    HW224090  10.068   5.868   9.286
40695SOL     OW24091  10.196   7.120   8.641
40695SOL    HW124092  10.187   7.102   8.546
40695SOL    HW224093  10.254   7.048   8.671
40696SOL     OW24094  10.628   6.184   8.886
40696SOL    HW124095  10.667   6.144   8.966
40696SOL    HW224096  10.673   6.269   8.876
40697SOL     OW24097  10.148   6.979   8.393
40697SOL    HW124098  10.236   6.971   8.352
40697SOL    HW224099  10.090   6.993   8.316
40698SOL     OW24100  10.244   6.107   8.368
40698SOL    HW124101  10.223   6.107   8.272
40698SOL    HW224102  10.268   6.014   8.380
40699SOL     OW24103   9.861   5.639   7.953
40699SOL    HW124104   9.778   5.643   8.004
40699SOL    HW224105   9.851   5.717   7.894
40700SOL     OW24106  10.755   6.747   7.471
40700SOL    HW124107  10.779   6.682   7.541
40700SOL    HW224108  10.677   6.788   7.509
40701SOL     OW24109   9.589   5.625   7.641
40701SOL    HW124110   9.648   5.698   7.617
40701SOL    HW224111   9.651   5.561   7.678
40702SOL     OW24112  10.230   5.840   7.938
40702SOL    HW124113  10.214   5.886   7.854
40702SOL    HW224114  10.327   5.851   7.946
40703SOL     OW24115  10.366   6.264   8.928
40703SOL    HW124116  10.296   6.197   8.923
40703SOL    HW224117  10.448   6.211   8.920
40704SOL     OW24118  10.528   7.195   8.228
40704SOL    HW124119  10.541   7.254   8.152
40704SOL    HW224120  10.615   7.197   8.271
40705SOL     OW24121   9.781   6.756   8.199
40705SOL    HW124122   9.707   6.719   8.250
40705SOL    HW224123   9.751   6.736   8.108
40706SOL     OW24124  10.543   7.405   8.041
40706SOL    HW124125  10.602   7.454   7.980
40706SOL    HW224126  10.535   7.469   8.113
40707SOL     OW24127  10.352   6.127   7.456
40707SOL    HW124128  10.305   6.212   7.447
40707SOL    HW224129  10.408   6.140   7.534
40708SOL     OW24130   9.374   6.139   8.848
40708SOL    HW124131   9.467   6.116   8.828
40708SOL    HW224132   9.385   6.219   8.904
40709SOL     OW24133   9.873   5.813   8.609
40709SOL    HW124134   9.920   5.737   8.645
40709SOL    HW224135   9.783   5.801   8.645
40710SOL     OW24136  10.182   6.058   8.115
40710SOL    HW124137  10.161   6.105   8.032
40710SOL    HW224138  10.202   5.969   8.080
40711SOL     OW24139  10.317   5.677   8.217
40711SOL    HW124140  10.308   5.662   8.123
40711SOL    HW224141  10.300   5.589   8.254
40712SOL     OW24142  10.742   6.752   8.321
40712SOL    HW124143  10.695   6.671   8.343
40712SOL    HW224144  10.726   6.757   8.225
40713SOL     OW24145  10.770   6.171   8.441
40713SOL    HW124146  10.707   6.098   8.430
40713SOL    HW224147  10.852   6.126   8.466
40714SOL     OW24148   0.001   6.413   7.832
40714SOL    HW124149   0.059   6.367   7.895
40714SOL    HW224150  11.098   6.346   7.761
40715SOL     OW24151   9.798   7.013   7.569
40715SOL    HW124152   9.718   6.996   7.620
40715SOL    HW224153   9.787   6.956   7.492
40716SOL     OW24154  10.720   6.196   7.493
40716SOL    HW124155  10.660   6.163   7.564
40716SOL    HW224156  10.806   6.172   7.529
40717SOL     OW24157   9.822   5.824   7.773
40717SOL    HW124158   9.864   5.789   7.692
40717SOL    HW224159   9.793   5.912   7.740
40718SOL     OW24160  11.044   6.824   9.058
40718SOL    HW124161   0.028   6.786   9.031
40718SOL    HW224162  11.071   6.912   9.086
40719SOL     OW24163  10.375   6.934   8.796
40719SOL    HW124164  10.296   6.898   8.838
40719SOL    HW224165  10.447   6.884   8.840
40720SOL     OW24166  10.931   7.207   9.093
40720SOL    HW124167  10.936   7.261   9.013
40720SOL    HW224168  11.019   7.171   9.100
40721SOL     OW24169  10.454   6.802   8.554
40721SOL    HW124170  10.374   6.818   8.604
40721SOL    HW224171  10.433   6.839   8.466
40722SOL     OW24172  10.921   6.668   8.551
40722SOL    HW124173  10.902   6.725   8.628
40722SOL    HW224174  10.872   6.716   8.482
40723SOL     OW24175  10.216   5.692   8.848
40723SOL    HW124176  10.246   5.665   8.759
40723SOL    HW224177  10.300   5.727   8.885
40724SOL     OW24178  10.307   6.703   9.186
40724SOL    HW124179  10.219   6.732   9.212
40724SOL    HW224180  10.289   6.625   9.129
40725SOL     OW24181  10.015   6.638   7.793
40725SOL    HW124182  10.012   6.621   7.888
40725SOL    HW224183  10.096   6.588   7.766
40726SOL     OW24184   9.723   6.395   8.719
40726SOL    HW124185   9.799   6.390   8.780
40726SOL    HW224186   9.684   6.306   8.727
40727SOL     OW24187  10.593   5.965   8.728
40727SOL    HW124188  10.618   6.049   8.771
40727SOL    HW224189  10.504   5.984   8.695
40728SOL     OW24190   9.376   7.150   8.788
40728SOL    HW124191   9.358   7.237   8.749
40728SOL    HW224192   9.473   7.143   8.784
40729SOL     OW24193   9.695   6.697   7.955
40729SOL    HW124194   9.712   6.759   7.883
40729SOL    HW224195   9.685   6.613   7.907
40730SOL     OW24196   9.843   6.124   8.288
40730SOL    HW124197   9.863   6.187   8.215
40730SOL    HW224198   9.926   6.123   8.336
40731SOL     OW24199  10.557   6.972   7.814
40731SOL    HW124200  10.613   7.033   7.866
40731SOL    HW224201  10.473   6.980   7.862
40732SOL     OW24202  10.615   7.059   8.618
40732SOL    HW124203  10.681   7.049   8.689
40732SOL    HW224204  10.558   6.982   8.629
40733SOL     OW24205  10.894   6.205   7.933
40733SOL    HW124206  10.827   6.249   7.987
40733SOL    HW224207  10.939   6.278   7.889
40734SOL     OW24208   9.648   7.096   8.768
40734SOL    HW124209   9.636   7.056   8.679
40734SOL    HW224210   9.741   7.122   8.762
40735SOL     OW24211   9.735   6.318   9.067
40735SOL    HW124212   9.795   6.354   8.999
40735SOL    HW224213   9.759   6.224   9.067
40736SOL     OW24214  10.874   6.380   9.100
40736SOL    HW124215  10.850   6.314   9.034
40736SOL    HW224216  10.943   6.432   9.054
40737SOL     OW24217  10.295   5.699   9.183
40737SOL    HW124218  10.359   5.770   9.176
40737SOL    HW224219  10.344   5.626   9.142
40738SOL     OW24220   9.804   5.600   9.205
40738SOL    HW124221   9.767   5.540   9.138
40738SOL    HW224222   9.740   5.672   9.206
40739SOL     OW24223   9.869   6.489   8.484
40739SOL    HW124224   9.918   6.572   8.494
40739SOL    HW224225   9.840   6.468   8.574
40740SOL     OW24226  10.682   6.434   8.489
40740SOL    HW124227  10.598   6.408   8.449
40740SOL    HW224228  10.730   6.349   8.488
40741SOL     OW24229   9.601   5.798   8.700
40741SOL    HW124230   9.551   5.827   8.779
40741SOL    HW224231   9.585   5.702   8.701
40742SOL     OW24232   9.337   6.876   8.745
40742SOL    HW124233   9.390   6.826   8.810
40742SOL    HW224234   9.356   6.969   8.765
40743SOL     OW24235  10.044   6.246   8.524
40743SOL    HW124236  10.107   6.202   8.465
40743SOL    HW224237  10.004   6.315   8.468
40744SOL     OW24238   9.610   5.650   8.062
40744SOL    HW124239   9.586   5.741   8.088
40744SOL    HW224240   9.616   5.606   8.149
40745SOL     OW24241  10.926   5.970   7.796
40745SOL    HW124242  10.953   5.909   7.865
40745SOL    HW224243  10.897   6.049   7.847
40746SOL     OW24244  10.380   6.335   8.423
40746SOL    HW124245  10.361   6.352   8.517
40746SOL    HW224246  10.340   6.246   8.410
40747SOL     OW24247  10.287   7.155   9.162
40747SOL    HW124248  10.284   7.209   9.080
40747SOL    HW224249  10.338   7.078   9.133
40748SOL     OW24250   9.671   6.508   9.239
40748SOL    HW124251   9.742   6.502   9.304
40748SOL    HW224252   9.689   6.430   9.182
40749SOL     OW24253  10.806   5.859   7.580
40749SOL    HW124254  10.730   5.819   7.624
40749SOL    HW224255  10.853   5.900   7.655
40750SOL     OW24256  10.615   6.443   7.479
40750SOL    HW124257  10.652   6.353   7.488
40750SOL    HW224258  10.643   6.466   7.388
40751SOL     OW24259  10.391   6.945   8.299
40751SOL    HW124260  10.395   6.869   8.237
40751SOL    HW224261  10.451   7.011   8.258
40752SOL     OW24262   9.603   6.399   8.453
40752SOL    HW124263   9.699   6.410   8.440
40752SOL    HW224264   9.599   6.305   8.475
40753SOL     OW24265   9.639   6.121   8.458
40753SOL    HW124266   9.605   6.031   8.442
40753SOL    HW224267   9.707   6.128   8.387
40754SOL     OW24268  10.447   5.976   9.119
40754SOL    HW124269  10.404   6.017   9.196
40754SOL    HW224270  10.536   6.014   9.123
40755SOL     OW24271  10.465   5.787   8.928
40755SOL    HW124272  10.459   5.857   8.996
40755SOL    HW224273  10.507   5.835   8.854
40756SOL     OW24274   9.314   6.908   7.641
40756SOL    HW124275   9.220   6.918   7.612
40756SOL    HW224276   9.316   6.817   7.675
40757SOL     OW24277   9.399   7.367   8.394
40757SOL    HW124278   9.373   7.289   8.339
40757SOL    HW224279   9.490   7.383   8.360
40758SOL     OW24280   9.787   7.179   8.377
40758SOL    HW124281   9.858   7.243   8.399
40758SOL    HW224282   9.836   7.114   8.323
40759SOL     OW24283  10.296   6.369   8.683
40759SOL    HW124284  10.332   6.329   8.765
40759SOL    HW224285  10.209   6.326   8.678
40760SOL     OW24286   9.335   6.105   8.555
40760SOL    HW124287   9.410   6.088   8.497
40760SOL    HW224288   9.378   6.111   8.642
40761SOL     OW24289   9.531   6.097   9.164
40761SOL    HW124290   9.594   6.054   9.103
40761SOL    HW224291   9.488   6.164   9.108
40762SOL     OW24292  10.114   6.139   7.844
40762SOL    HW124293  10.126   6.074   7.773
40762SOL    HW224294  10.051   6.201   7.805
40763SOL     OW24295   9.564   7.129   9.171
40763SOL    HW124296   9.549   7.202   9.234
40763SOL    HW224297   9.550   7.050   9.226
40764SOL     OW24298   9.995   6.059   8.720
40764SOL    HW124299   9.945   5.983   8.684
40764SOL    HW224300   9.996   6.122   8.646
40765SOL     OW24301  10.242   7.288   8.924
40765SOL    HW124302  10.235   7.260   8.832
40765SOL    HW224303  10.238   7.385   8.916
40766SOL     OW24304   9.756   6.055   7.649
40766SOL    HW124305   9.823   6.125   7.651
40766SOL    HW224306   9.674   6.107   7.646
40767SOL     OW24307   9.460   6.714   8.924
40767SOL    HW124308   9.459   6.653   9.002
40767SOL    HW224309   9.475   6.652   8.849
40768SOL     OW24310  10.618   6.627   8.671
40768SOL    HW124311  10.642   6.567   8.597
40768SOL    HW224312  10.561   6.693   8.626
40769SOL     OW24313  10.621   6.449   7.758
40769SOL    HW124314  10.581   6.368   7.794
40769SOL    HW224315  10.594   6.446   7.665
40770SOL     OW24316  11.054   7.340   8.600
40770SOL    HW124317   0.022   7.360   8.534
40770SOL    HW224318  11.029   7.248   8.576
40771SOL     OW24319  10.559   7.315   8.554
40771SOL    HW124320  10.645   7.334   8.511
40771SOL    HW224321  10.566   7.219   8.570
40772SOL     OW24322   9.411   6.835   8.482
40772SOL    HW124323   9.377   6.847   8.572
40772SOL    HW224324   9.336   6.794   8.437
40773SOL     OW24325  10.001   7.226   9.183
40773SOL    HW124326   9.950   7.307   9.171
40773SOL    HW224327  10.090   7.253   9.155
40774SOL     OW24328  11.040   5.709   7.985
40774SOL    HW124329  11.093   5.709   7.903
40774SOL    HW224330  11.038   5.615   8.012
40775SOL     OW24331  10.686   7.172   7.955
40775SOL    HW124332  10.742   7.190   7.877
40775SOL    HW224333  10.632   7.252   7.963
40776SOL     OW24334   9.466   7.380   9.273
40776SOL    HW124335   9.421   7.312   9.327
40776SOL    HW224336   9.508   7.432   9.344
40777SOL     OW24337  10.583   6.535   8.157
40777SOL    HW124338  10.641   6.458   8.156
40777SOL    HW224339  10.619   6.587   8.084
40778SOL     OW24340  10.102   6.841   8.880
40778SOL    HW124341  10.090   6.914   8.942
40778SOL    HW224342  10.034   6.859   8.813
40779SOL     OW24343   9.983   7.207   7.611
40779SOL    HW124344   9.997   7.218   7.515
40779SOL    HW224345   9.927   7.127   7.610
40780SOL     OW24346   9.561   5.904   8.156
40780SOL    HW124347   9.475   5.945   8.133
40780SOL    HW224348   9.566   5.917   8.252
40781SOL     OW24349  10.510   7.223   7.470
40781SOL    HW124350  10.514   7.129   7.497
40781SOL    HW224351  10.450   7.220   7.392
40782SOL     OW24352  10.138   6.578   8.820
40782SOL    HW124353  10.197   6.567   8.745
40782SOL    HW224354  10.140   6.674   8.837
40783SOL     OW24355  10.226   6.504   7.713
40783SOL    HW124356  10.306   6.533   7.663
40783SOL    HW224357  10.263   6.439   7.776
40784SOL     OW24358  10.836   7.228   7.477
40784SOL    HW124359  10.740   7.217   7.468
40784SOL    HW224360  10.867   7.215   7.385
40785SOL     OW24361   9.671   6.867   8.999
40785SOL    HW124362   9.674   6.921   8.919
40785SOL    HW224363   9.595   6.808   8.979
40786SOL     OW24364  10.873   6.866   8.736
40786SOL    HW124365  10.969   6.875   8.754
40786SOL    HW224366  10.836   6.943   8.784
40787SOL     OW24367  10.371   6.710   8.165
40787SOL    HW124368  10.293   6.655   8.183
40787SOL    HW224369  10.442   6.642   8.161
40788SOL     OW24370  10.331   5.818   8.438
40788SOL    HW124371  10.319   5.773   8.351
40788SOL    HW224372  10.341   5.742   8.498
40789SOL     OW24373   9.935   7.064   7.948
40789SOL    HW124374   9.989   7.024   7.877
40789SOL    HW224375   9.860   7.099   7.900
40790SOL     OW24376   9.564   6.968   7.719
40790SOL    HW124377   9.468   6.951   7.713
40790SOL    HW224378   9.574   6.988   7.814
40791SOL     OW24379   9.433   6.575   9.146
40791SOL    HW124380   9.361   6.573   9.213
40791SOL    HW224381   9.513   6.555   9.200
40792SOL     OW24382   9.971   5.765   8.942
40792SOL    HW124383  10.060   5.736   8.911
40792SOL    HW224384   9.994   5.802   9.030
40793SOL     OW24385   9.412   5.911   7.457
40793SOL    HW124386   9.316   5.916   7.448
40793SOL    HW224387   9.440   5.995   7.417
40794SOL     OW24388  10.724   6.444   8.858
40794SOL    HW124389  10.675   6.495   8.790
40794SOL    HW224390  10.815   6.451   8.823
40795SOL     OW24391   9.355   5.749   7.744
40795SOL    HW124392   9.353   5.837   7.703
40795SOL    HW224393   9.436   5.710   7.706
40796SOL     OW24394  10.513   6.962   7.547
40796SOL    HW124395  10.434   6.907   7.553
40796SOL    HW224396  10.541   6.965   7.641
40797SOL     OW24397   9.923   6.400   8.886
40797SOL    HW124398   9.979   6.477   8.868
40797SOL    HW224399   9.992   6.330   8.890
40798SOL     OW24400  10.795   7.373   8.410
40798SOL    HW124401  10.839   7.433   8.346
40798SOL    HW224402  10.872   7.345   8.461
40799SOL     OW24403  10.035   6.121   9.140
40799SOL    HW124404  10.071   6.167   9.218
40799SOL    HW224405  10.044   6.027   9.163
40800SOL     OW24406  10.790   6.763   9.070
40800SOL    HW124407  10.771   6.775   9.165
40800SOL    HW224408  10.882   6.794   9.064
40801SOL     OW24409   9.676   7.318   9.009
40801SOL    HW124410   9.593   7.366   8.989
40801SOL    HW224411   9.641   7.235   9.047
40802SOL     OW24412  10.989   6.447   8.681
40802SOL    HW124413  11.002   6.372   8.621
40802SOL    HW224414  10.960   6.520   8.622
40803SOL     OW24415  10.489   5.881   7.944
40803SOL    HW124416  10.561   5.836   7.898
40803SOL    HW224417  10.529   5.967   7.963
40804SOL     OW24418   9.892   6.331   8.116
40804SOL    HW124419   9.933   6.418   8.102
40804SOL    HW224420   9.830   6.325   8.042
40805SOL     OW24421  11.059   5.967   9.089
40805SOL    HW124422  11.038   6.003   9.002
40805SOL    HW224423  10.989   5.902   9.106
40806SOL     OW24424  11.022   6.515   8.936
40806SOL    HW124425  11.043   6.609   8.931
40806SOL    HW224426  11.026   6.486   8.842
40807SOL     OW24427  10.165   6.950   7.480
40807SOL    HW124428  10.147   6.967   7.574
40807SOL    HW224429  10.192   7.036   7.446
40808SOL     OW24430   9.966   7.376   8.395
40808SOL    HW124431   9.946   7.469   8.373
40808SOL    HW224432  10.058   7.366   8.369
40809SOL     OW24433  10.201   6.523   8.281
40809SOL    HW124434  10.258   6.459   8.327
40809SOL    HW224435  10.171   6.580   8.352
40810SOL     OW24436  10.414   6.596   7.540
40810SOL    HW124437  10.381   6.632   7.456
40810SOL    HW224438  10.489   6.539   7.511
40811SOL     OW24439   0.062   7.133   8.298
40811SOL    HW124440  11.085   7.128   8.242
40811SOL    HW224441   0.071   7.042   8.329
40812SOL     OW24442   9.538   6.894   9.316
40812SOL    HW124443   9.453   6.849   9.303
40812SOL    HW224444   9.536   6.911   9.412
40813SOL     OW24445   9.396   6.840   8.110
40813SOL    HW124446   9.397   6.783   8.187
40813SOL    HW224447   9.469   6.803   8.059
40814SOL     OW24448   9.932   6.989   9.074
40814SOL    HW124449   9.862   7.014   9.012
40814SOL    HW224450   9.954   7.075   9.115
40815SOL     OW24451   0.014   5.768   8.645
40815SOL    HW124452   0.008   5.676   8.675
40815SOL    HW224453  11.081   5.763   8.555
40816SOL     OW24454   9.742   6.024   7.981
40816SOL    HW124455   9.789   5.957   7.929
40816SOL    HW224456   9.698   5.973   8.051
40817SOL     OW24457  10.980   7.088   8.555
40817SOL    HW124458  10.913   7.050   8.495
40817SOL    HW224459  11.027   7.011   8.587
40818SOL     OW24460   9.638   6.124   8.740
40818SOL    HW124461   9.702   6.077   8.795
40818SOL    HW224462   9.658   6.093   8.650
40819SOL     OW24463  10.129   7.176   8.130
40819SOL    HW124464  10.124   7.211   8.040
40819SOL    HW224465  10.042   7.133   8.138
40820SOL     OW24466  10.737   5.807   8.553
40820SOL    HW124467  10.727   5.715   8.581
40820SOL    HW224468  10.699   5.857   8.628
40821SOL     OW24469  10.322   5.602   8.610
40821SOL    HW124470  10.276   5.531   8.565
40821SOL    HW224471  10.413   5.564   8.622
40822SOL     OW24472  10.100   6.928   7.763
40822SOL    HW124473  10.060   6.840   7.750
40822SOL    HW224474  10.172   6.907   7.824
40823SOL     OW24475   9.910   7.137   8.721
40823SOL    HW124476   9.909   7.227   8.761
40823SOL    HW224477  10.001   7.136   8.687
40824SOL     OW24478  10.660   5.623   7.652
40824SOL    HW124479  10.654   5.586   7.563
40824SOL    HW224480  10.577   5.587   7.691
40825SOL     OW24481  10.644   6.047   8.140
40825SOL    HW124482  10.574   6.111   8.123
40825SOL    HW224483  10.626   6.020   8.232
40826SOL     OW24484  10.910   5.789   8.340
40826SOL    HW124485  10.843   5.796   8.409
40826SOL    HW224486  10.872   5.839   8.268
40827SOL     OW24487   9.356   6.657   7.750
40827SOL    HW124488   9.445   6.645   7.716
40827SOL    HW224489   9.334   6.565   7.778
40828SOL     OW24490  10.191   7.230   7.799
40828SOL    HW124491  10.119   7.219   7.735
40828SOL    HW224492  10.170   7.315   7.842
40829SOL     OW24493   9.537   6.239   9.449
40829SOL    HW124494   9.452   6.201   9.474
40829SOL    HW224495   9.558   6.195   9.365
40830SOL     OW24496   9.526   5.870  10.290
40830SOL    HW124497   9.551   5.846  10.381
40830SOL    HW224498   9.442   5.822  10.280
40831SOL     OW24499   9.310   5.995   9.931
40831SOL    HW124500   9.232   6.010   9.989
40831SOL    HW224501   9.287   5.910   9.891
40832SOL     OW24502   9.872   6.886  10.457
40832SOL    HW124503   9.778   6.885  10.434
40832SOL    HW224504   9.879   6.969  10.507
40833SOL     OW24505  10.894   7.088  10.010
40833SOL    HW124506  10.851   7.065  10.095
40833SOL    HW224507  10.825   7.068   9.945
40834SOL     OW24508  10.445   6.284   9.999
40834SOL    HW124509  10.481   6.372   9.982
40834SOL    HW224510  10.414   6.293  10.090
40835SOL     OW24511  11.077   6.191   9.537
40835SOL    HW124512  11.047   6.176   9.445
40835SOL    HW224513  11.032   6.120   9.585
40836SOL     OW24514  10.061   6.737  10.332
40836SOL    HW124515   9.992   6.784  10.383
40836SOL    HW224516  10.095   6.810  10.280
40837SOL     OW24517  10.154   6.347   0.031
40837SOL    HW124518  10.154   6.415   0.100
40837SOL    HW224519  10.187   6.395  11.054
40838SOL     OW24520   9.998   6.629   9.974
40838SOL    HW124521  10.064   6.602  10.041
40838SOL    HW224522   9.930   6.672  10.029
40839SOL     OW24523   9.631   7.018  10.378
40839SOL    HW124524   9.555   6.980  10.330
40839SOL    HW224525   9.680   7.067  10.309
40840SOL     OW24526  10.774   7.088  10.678
40840SOL    HW124527  10.800   7.179  10.695
40840SOL    HW224528  10.694   7.081  10.733
40841SOL     OW24529   9.762   5.972  10.800
40841SOL    HW124530   9.829   5.902  10.793
40841SOL    HW224531   9.678   5.924  10.809
40842SOL     OW24532   9.527   7.302   9.779
40842SOL    HW124533   9.559   7.378   9.833
40842SOL    HW224534   9.590   7.301   9.706
40843SOL     OW24535   9.561   7.008   9.843
40843SOL    HW124536   9.554   7.103   9.860
40843SOL    HW224537   9.490   6.971   9.899
40844SOL     OW24538   9.543   6.664  10.174
40844SOL    HW124539   9.580   6.597  10.234
40844SOL    HW224540   9.514   6.733  10.238
40845SOL     OW24541   9.919   7.387  10.730
40845SOL    HW124542   9.845   7.366  10.791
40845SOL    HW224543   9.937   7.481  10.750
40846SOL     OW24544   9.887   6.578   9.429
40846SOL    HW124545   9.943   6.618   9.360
40846SOL    HW224546   9.928   6.614   9.511
40847SOL     OW24547  10.896   5.707  10.802
40847SOL    HW124548  10.950   5.755  10.738
40847SOL    HW224549  10.906   5.757  10.883
40848SOL     OW24550   9.412   6.250   9.871
40848SOL    HW124551   9.389   6.156   9.879
40848SOL    HW224552   9.417   6.279   9.964
40849SOL     OW24553   9.377   7.190   9.435
40849SOL    HW124554   9.361   7.097   9.456
40849SOL    HW224555   9.330   7.235   9.507
40850SOL     OW24556  10.992   6.551   9.898
40850SOL    HW124557  11.059   6.508   9.954
40850SOL    HW224558  11.045   6.590   9.828
40851SOL     OW24559   9.441   6.320  10.904
40851SOL    HW124560   9.530   6.350  10.924
40851SOL    HW224561   9.390   6.403  10.911
40852SOL     OW24562   9.900   6.993  10.071
40852SOL    HW124563   9.857   6.906  10.083
40852SOL    HW224564   9.889   7.005   9.975
40853SOL     OW24565  10.605   6.833  10.733
40853SOL    HW124566  10.620   6.766  10.662
40853SOL    HW224567  10.669   6.807  10.800
40854SOL     OW24568  10.117   5.543   9.826
40854SOL    HW124569  10.162   5.630   9.811
40854SOL    HW224570  10.025   5.573   9.831
40855SOL     OW24571   9.500   6.555  10.609
40855SOL    HW124572   9.585   6.518  10.583
40855SOL    HW224573   9.436   6.496  10.568
40856SOL     OW24574  10.819   6.582   9.517
40856SOL    HW124575  10.757   6.530   9.572
40856SOL    HW224576  10.898   6.584   9.572
40857SOL     OW24577  10.520   7.381  10.899
40857SOL    HW124578  10.526   7.451  10.832
40857SOL    HW224579  10.521   7.300  10.845
40858SOL     OW24580   9.647   5.818   0.013
40858SOL    HW124581   9.708   5.886   0.040
40858SOL    HW224582   9.563   5.869   0.011
40859SOL     OW24583  10.765   7.008  10.254
40859SOL    HW124584  10.705   7.024  10.330
40859SOL    HW224585  10.750   6.913  10.236
40860SOL     OW24586  10.974   7.314   9.884
40860SOL    HW124587  10.954   7.263   9.805
40860SOL    HW224588  10.969   7.245   9.953
40861SOL     OW24589   9.893   6.302   9.566
40861SOL    HW124590   9.903   6.391   9.530
40861SOL    HW224591   9.832   6.315   9.641
40862SOL     OW24592  10.574   5.941  10.232
40862SOL    HW124593  10.487   5.897  10.237
40862SOL    HW224594  10.626   5.886  10.293
40863SOL     OW24595  10.869   7.233   9.609
40863SOL    HW124596  10.935   7.301   9.601
40863SOL    HW224597  10.854   7.208   9.515
40864SOL     OW24598  10.123   6.196  10.772
40864SOL    HW124599  10.094   6.163  10.860
40864SOL    HW224600  10.073   6.139  10.710
40865SOL     OW24601  10.254   6.462  10.906
40865SOL    HW124602  10.304   6.390  10.861
40865SOL    HW224603  10.205   6.504  10.834
40866SOL     OW24604  10.323   5.986  10.572
40866SOL    HW124605  10.231   6.003  10.599
40866SOL    HW224606  10.310   5.948  10.484
40867SOL     OW24607  10.342   6.281   9.714
40867SOL    HW124608  10.347   6.284   9.811
40867SOL    HW224609  10.264   6.222   9.700
40868SOL     OW24610   9.408   6.408  10.107
40868SOL    HW124611   9.484   6.390  10.165
40868SOL    HW224612   9.387   6.499  10.131
40869SOL     OW24613   9.422   7.430  10.866
40869SOL    HW124614   9.426   7.378  10.947
40869SOL    HW224615   9.337   7.404  10.829
40870SOL     OW24616  10.133   5.915   9.467
40870SOL    HW124617  10.217   5.957   9.445
40870SOL    HW224618  10.153   5.870   9.551
40871SOL     OW24619  10.690   6.751   9.884
40871SOL    HW124620  10.749   6.739   9.809
40871SOL    HW224621  10.624   6.812   9.847
40872SOL     OW24622   9.860   5.766  10.196
40872SOL    HW124623   9.867   5.793  10.289
40872SOL    HW224624   9.863   5.851  10.150
40873SOL     OW24625  10.318   7.037   9.789
40873SOL    HW124626  10.284   7.110   9.734
40873SOL    HW224627  10.307   7.074   9.878
40874SOL     OW24628   9.649   7.393  10.166
40874SOL    HW124629   9.697   7.309  10.182
40874SOL    HW224630   9.718   7.459  10.185
40875SOL     OW24631  11.090   6.609  10.164
40875SOL    HW124632  11.041   6.666  10.102
40875SOL    HW224633  11.042   6.622  10.248
40876SOL     OW24634  10.529   7.140  10.790
40876SOL    HW124635  10.536   7.063  10.848
40876SOL    HW224636  10.457   7.113  10.731
40877SOL     OW24637   9.625   6.519   9.561
40877SOL    HW124638   9.713   6.530   9.523
40877SOL    HW224639   9.600   6.429   9.534
40878SOL     OW24640  10.789   6.349  10.007
40878SOL    HW124641  10.776   6.298  10.088
40878SOL    HW224642  10.871   6.397  10.024
40879SOL     OW24643   9.765   6.867  11.040
40879SOL    HW124644   9.739   6.876  10.946
40879SOL    HW224645   9.714   6.790  11.066
40880SOL     OW24646  10.425   7.362   9.556
40880SOL    HW124647  10.357   7.306   9.597
40880SOL    HW224648  10.449   7.313   9.474
40881SOL     OW24649   9.488   5.871  10.782
40881SOL    HW124650   9.424   5.938  10.809
40881SOL    HW224651   9.466   5.796  10.839
40882SOL     OW24652   9.779   7.311   9.620
40882SOL    HW124653   9.816   7.367   9.692
40882SOL    HW224654   9.856   7.294   9.564
40883SOL     OW24655  10.731   5.667   9.761
40883SOL    HW124656  10.716   5.659   9.665
40883SOL    HW224657  10.826   5.685   9.769
40884SOL     OW24658   9.551   7.382  10.545
40884SOL    HW124659   9.610   7.320  10.589
40884SOL    HW224660   9.538   7.341  10.459
40885SOL     OW24661  10.281   7.300  10.183
40885SOL    HW124662  10.356   7.242  10.204
40885SOL    HW224663  10.232   7.246  10.118
40886SOL     OW24664   9.669   6.288   9.753
40886SOL    HW124665   9.697   6.196   9.775
40886SOL    HW224666   9.576   6.285   9.781
40887SOL     OW24667   9.915   5.714   9.420
40887SOL    HW124668  10.011   5.703   9.422
40887SOL    HW224669   9.889   5.660   9.343
40888SOL     OW24670  10.083   5.838  11.022
40888SOL    HW124671  10.142   5.798  11.087
40888SOL    HW224672  10.018   5.881  11.078
40889SOL     OW24673  10.201   7.133  10.493
40889SOL    HW124674  10.178   7.092  10.408
40889SOL    HW224675  10.255   7.065  10.536
40890SOL     OW24676  10.641   6.190  10.706
40890SOL    HW124677  10.679   6.160  10.789
40890SOL    HW224678  10.674   6.283  10.704
40891SOL     OW24679  10.120   7.002  10.250
40891SOL    HW124680  10.206   6.984  10.206
40891SOL    HW224681  10.059   7.008  10.175
40892SOL     OW24682  10.249   6.099  10.229
40892SOL    HW124683  10.224   6.096  10.133
40892SOL    HW224684  10.265   6.005  10.245
40893SOL     OW24685   9.861   5.633   9.816
40893SOL    HW124686   9.787   5.647   9.877
40893SOL    HW224687   9.853   5.713   9.759
40894SOL     OW24688  10.707   6.725   9.317
40894SOL    HW124689  10.740   6.669   9.391
40894SOL    HW224690  10.667   6.798   9.365
40895SOL     OW24691   9.590   5.631   9.504
40895SOL    HW124692   9.653   5.704   9.493
40895SOL    HW224693   9.647   5.564   9.545
40896SOL     OW24694  10.395   6.264  10.792
40896SOL    HW124695  10.327   6.197  10.779
40896SOL    HW224696  10.477   6.221  10.760
40897SOL     OW24697  10.520   7.146  10.098
40897SOL    HW124698  10.540   7.216  10.034
40897SOL    HW224699  10.595   7.149  10.158
40898SOL     OW24700   9.770   6.752  10.054
40898SOL    HW124701   9.693   6.724  10.107
40898SOL    HW224702   9.740   6.723   9.965
40899SOL     OW24703  10.572   7.392   9.895
40899SOL    HW124704  10.624   7.453   9.839
40899SOL    HW224705  10.544   7.451   9.966
40900SOL     OW24706  10.355   6.130   9.321
40900SOL    HW124707  10.300   6.209   9.314
40900SOL    HW224708  10.412   6.146   9.397
40901SOL     OW24709   9.391   6.148  10.694
40901SOL    HW124710   9.485   6.138  10.672
40901SOL    HW224711   9.395   6.218  10.763
40902SOL     OW24712   9.874   5.822  10.470
40902SOL    HW124713   9.913   5.747  10.518
40902SOL    HW224714   9.782   5.818  10.499
40903SOL     OW24715  10.180   6.068   9.978
40903SOL    HW124716  10.121   6.111   9.916
40903SOL    HW224717  10.206   5.987   9.929
40904SOL     OW24718  10.377   5.662  10.078
40904SOL    HW124719  10.328   5.683   9.996
40904SOL    HW224720  10.336   5.579  10.107
40905SOL     OW24721  10.726   6.749  10.181
40905SOL    HW124722  10.673   6.668  10.186
40905SOL    HW224723  10.726   6.766  10.085
40906SOL     OW24724  10.778   6.186  10.338
40906SOL    HW124725  10.721   6.108  10.328
40906SOL    HW224726  10.865   6.148  10.358
40907SOL     OW24727   0.015   6.415   9.674
40907SOL    HW124728   0.055   6.372   9.751
40907SOL    HW224729   0.011   6.339   9.612
40908SOL     OW24730   9.786   7.004   9.416
40908SOL    HW124731   9.723   6.971   9.483
40908SOL    HW224732   9.763   7.098   9.417
40909SOL     OW24733  10.713   6.178   9.386
40909SOL    HW124734  10.648   6.153   9.455
40909SOL    HW224735  10.796   6.154   9.428
40910SOL     OW24736   9.811   5.827   9.637
40910SOL    HW124737   9.861   5.787   9.563
40910SOL    HW224738   9.792   5.914   9.598
40911SOL     OW24739  11.036   6.810  10.875
40911SOL    HW124740   0.031   6.799  10.875
40911SOL    HW224741  11.022   6.893  10.922
40912SOL     OW24742  10.360   6.960  10.667
40912SOL    HW124743  10.281   6.917  10.703
40912SOL    HW224744  10.432   6.900  10.695
40913SOL     OW24745  10.425   6.814  10.407
40913SOL    HW124746  10.340   6.820  10.452
40913SOL    HW224747  10.405   6.846  10.318
40914SOL     OW24748  10.946   6.679  10.396
40914SOL    HW124749  10.928   6.734  10.475
40914SOL    HW224750  10.864   6.693  10.347
40915SOL     OW24751  10.224   5.697  10.692
40915SOL    HW124752  10.256   5.669  10.604
40915SOL    HW224753  10.305   5.728  10.736
40916SOL     OW24754  10.016   6.650   9.661
40916SOL    HW124755  10.011   6.630   9.756
40916SOL    HW224756  10.092   6.594   9.633
40917SOL     OW24757   9.736   6.400  10.585
40917SOL    HW124758   9.807   6.398  10.652
40917SOL    HW224759   9.697   6.311  10.595
40918SOL     OW24760  10.599   5.952  10.603
40918SOL    HW124761  10.626   6.042  10.630
40918SOL    HW224762  10.507   5.968  10.576
40919SOL     OW24763   9.378   7.155  10.647
40919SOL    HW124764   9.373   7.246  10.616
40919SOL    HW224765   9.474   7.137  10.648
40920SOL     OW24766   9.681   6.678   9.815
40920SOL    HW124767   9.720   6.742   9.756
40920SOL    HW224768   9.676   6.598   9.761
40921SOL     OW24769   9.849   6.123  10.155
40921SOL    HW124770   9.880   6.186  10.088
40921SOL    HW224771   9.915   6.133  10.226
40922SOL     OW24772  10.552   6.950   9.688
40922SOL    HW124773  10.603   7.021   9.730
40922SOL    HW224774  10.464   6.964   9.728
40923SOL     OW24775  10.601   7.047  10.465
40923SOL    HW124776  10.657   7.053  10.544
40923SOL    HW224777  10.537   6.977  10.488
40924SOL     OW24778  10.886   6.216   9.778
40924SOL    HW124779  10.833   6.256   9.850
40924SOL    HW224780  10.923   6.294   9.735
40925SOL     OW24781   9.644   7.113  10.627
40925SOL    HW124782   9.633   7.068  10.540
40925SOL    HW224783   9.741   7.127  10.628
40926SOL     OW24784   9.763   6.295  10.929
40926SOL    HW124785   9.824   6.337  10.865
40926SOL    HW224786   9.784   6.202  10.919
40927SOL     OW24787  10.916   6.357  11.011
40927SOL    HW124788  10.847   6.420  11.033
40927SOL    HW224789  10.970   6.405  10.947
40928SOL     OW24790   9.871   6.476  10.364
40928SOL    HW124791   9.918   6.560  10.370
40928SOL    HW224792   9.828   6.467  10.451
40929SOL     OW24793  10.671   6.444  10.359
40929SOL    HW124794  10.592   6.412  10.313
40929SOL    HW224795  10.726   6.363  10.358
40930SOL     OW24796  10.523   6.125   9.567
40930SOL    HW124797  10.544   6.047   9.624
40930SOL    HW224798  10.458   6.173   9.622
40931SOL     OW24799   9.608   5.796  10.545
40931SOL    HW124800   9.562   5.827  10.625
40931SOL    HW224801   9.587   5.701  10.547
40932SOL     OW24802   9.413   6.875  10.588
40932SOL    HW124803   9.412   6.819  10.667
40932SOL    HW224804   9.353   6.948  10.613
40933SOL     OW24805  10.025   6.228  10.350
40933SOL    HW124806  10.102   6.212  10.294
40933SOL    HW224807   9.991   6.315  10.323
40934SOL     OW24808   9.607   5.658   9.916
40934SOL    HW124809   9.586   5.749   9.945
40934SOL    HW224810   9.608   5.609  10.000
40935SOL     OW24811  10.947   5.976   9.662
40935SOL    HW124812  10.956   5.904   9.725
40935SOL    HW224813  10.913   6.050   9.718
40936SOL     OW24814  10.342   6.346  10.268
40936SOL    HW124815  10.341   6.367  10.363
40936SOL    HW224816  10.318   6.251  10.266
40937SOL     OW24817  10.299   7.143  10.972
40937SOL    HW124818  10.295   7.211  10.902
40937SOL    HW224819  10.272   7.065  10.922
40938SOL     OW24820   9.687   6.505  11.065
40938SOL    HW124821   9.762   6.516   0.023
40938SOL    HW224822   9.711   6.422  11.018
40939SOL     OW24823  10.809   5.861   9.444
40939SOL    HW124824  10.740   5.804   9.482
40939SOL    HW224825  10.851   5.900   9.522
40940SOL     OW24826  10.636   6.432   9.275
40940SOL    HW124827  10.683   6.413   9.358
40940SOL    HW224828  10.616   6.341   9.248
40941SOL     OW24829  10.357   6.938  10.154
40941SOL    HW124830  10.370   6.859  10.098
40941SOL    HW224831  10.427   7.000  10.126
40942SOL     OW24832   9.616   6.394  10.296
40942SOL    HW124833   9.712   6.408  10.309
40942SOL    HW224834   9.607   6.301  10.320
40943SOL     OW24835   9.634   6.118  10.309
40943SOL    HW124836   9.601   6.028  10.291
40943SOL    HW224837   9.707   6.125  10.243
40944SOL     OW24838  10.470   5.787  10.783
40944SOL    HW124839  10.475   5.857  10.848
40944SOL    HW224840  10.515   5.828  10.707
40945SOL     OW24841   9.314   6.908   9.509
40945SOL    HW124842   9.223   6.921   9.472
40945SOL    HW224843   9.309   6.816   9.540
40946SOL     OW24844   9.396   7.361  10.250
40946SOL    HW124845   9.366   7.281  10.202
40946SOL    HW224846   9.487   7.372  10.216
40947SOL     OW24847   9.796   7.184  10.238
40947SOL    HW124848   9.868   7.242  10.269
40947SOL    HW224849   9.846   7.117  10.187
40948SOL     OW24850  10.290   6.397  10.556
40948SOL    HW124851  10.350   6.358  10.622
40948SOL    HW224852  10.211   6.343  10.568
40949SOL     OW24853   9.339   6.104  10.425
40949SOL    HW124854   9.424   6.095  10.380
40949SOL    HW224855   9.366   6.118  10.517
40950SOL     OW24856  10.121   6.152   9.650
40950SOL    HW124857  10.112   6.058   9.630
40950SOL    HW224858  10.045   6.193   9.604
40951SOL     OW24859   9.554   7.140  11.029
40951SOL    HW124860   9.499   7.161   0.007
40951SOL    HW224861   9.598   7.059  11.056
40952SOL     OW24862  10.020   6.060  10.570
40952SOL    HW124863   9.966   5.983  10.543
40952SOL    HW224864  10.009   6.121  10.494
40953SOL     OW24865  10.253   7.278  10.731
40953SOL    HW124866  10.228   7.255  10.640
40953SOL    HW224867  10.221   7.369  10.740
40954SOL     OW24868   9.753   6.060   9.506
40954SOL    HW124869   9.821   6.129   9.511
40954SOL    HW224870   9.672   6.112   9.510
40955SOL     OW24871   9.467   6.734  10.805
40955SOL    HW124872   9.450   6.675  10.882
40955SOL    HW224873   9.479   6.667  10.733
40956SOL     OW24874  10.615   6.647  10.537
40956SOL    HW124875  10.640   6.580  10.470
40956SOL    HW224876  10.551   6.702  10.488
40957SOL     OW24877  10.611   6.436   9.610
40957SOL    HW124878  10.561   6.385   9.675
40957SOL    HW224879  10.544   6.462   9.546
40958SOL     OW24880  11.034   7.344  10.441
40958SOL    HW124881   0.007   7.363  10.381
40958SOL    HW224882  11.022   7.247  10.430
40959SOL     OW24883  10.562   7.312  10.426
40959SOL    HW124884  10.650   7.332  10.391
40959SOL    HW224885  10.565   7.215  10.433
40960SOL     OW24886   9.427   6.839  10.330
40960SOL    HW124887   9.434   6.858  10.427
40960SOL    HW224888   9.334   6.815  10.324
40961SOL     OW24889  11.046   5.720   9.844
40961SOL    HW124890  11.101   5.718   9.762
40961SOL    HW224891  11.035   5.625   9.868
40962SOL     OW24892  10.689   7.160   9.803
40962SOL    HW124893  10.748   7.189   9.731
40962SOL    HW224894  10.645   7.242   9.831
40963SOL     OW24895  10.574   6.528   9.997
40963SOL    HW124896  10.648   6.464  10.002
40963SOL    HW224897  10.613   6.597   9.940
40964SOL     OW24898  10.126   6.847  10.751
40964SOL    HW124899  10.093   6.884  10.835
40964SOL    HW224900  10.049   6.860  10.693
40965SOL     OW24901   9.989   7.204   9.461
40965SOL    HW124902  10.001   7.215   9.364
40965SOL    HW224903   9.964   7.110   9.467
40966SOL     OW24904   9.565   5.903  10.008
40966SOL    HW124905   9.480   5.949   9.994
40966SOL    HW224906   9.575   5.906  10.104
40967SOL     OW24907  10.505   7.231   9.338
40967SOL    HW124908  10.511   7.135   9.353
40967SOL    HW224909  10.447   7.238   9.260
40968SOL     OW24910  10.129   6.579  10.697
40968SOL    HW124911  10.188   6.557  10.623
40968SOL    HW224912  10.153   6.671  10.718
40969SOL     OW24913  10.222   6.506   9.578
40969SOL    HW124914  10.305   6.530   9.533
40969SOL    HW224915  10.246   6.422   9.621
40970SOL     OW24916  10.815   7.180   9.347
40970SOL    HW124917  10.724   7.212   9.338
40970SOL    HW224918  10.853   7.195   9.258
40971SOL     OW24919   9.683   6.884  10.794
40971SOL    HW124920   9.652   6.951  10.731
40971SOL    HW224921   9.605   6.824  10.796
40972SOL     OW24922  10.889   6.863  10.588
40972SOL    HW124923  10.966   6.859  10.647
40972SOL    HW224924  10.842   6.943  10.619
40973SOL     OW24925  10.370   6.698  10.046
40973SOL    HW124926  10.292   6.647  10.075
40973SOL    HW224927  10.436   6.628  10.032
40974SOL     OW24928  10.335   5.819  10.296
40974SOL    HW124929  10.331   5.774  10.209
40974SOL    HW224930  10.336   5.742  10.356
40975SOL     OW24931   9.919   7.074   9.805
40975SOL    HW124932   9.978   7.045   9.734
40975SOL    HW224933   9.848   7.118   9.757
40976SOL     OW24934   9.561   6.974   9.578
40976SOL    HW124935   9.466   6.952   9.572
40976SOL    HW224936   9.572   6.985   9.675
40977SOL     OW24937   9.424   6.582  11.018
40977SOL    HW124938   9.351   6.587  11.081
40977SOL    HW224939   9.499   6.550  11.069
40978SOL     OW24940   9.973   5.783  10.774
40978SOL    HW124941  10.061   5.768  10.734
40978SOL    HW224942   9.999   5.808  10.865
40979SOL     OW24943   9.399   5.975   9.361
40979SOL    HW124944   9.319   5.938   9.322
40979SOL    HW224945   9.438   6.023   9.285
40980SOL     OW24946  10.724   6.440  10.735
40980SOL    HW124947  10.668   6.498  10.681
40980SOL    HW224948  10.812   6.471  10.711
40981SOL     OW24949   9.355   5.750   9.605
40981SOL    HW124950   9.354   5.840   9.568
40981SOL    HW224951   9.438   5.715   9.570
40982SOL     OW24952  10.514   6.954   9.417
40982SOL    HW124953  10.425   6.921   9.427
40982SOL    HW224954  10.545   6.957   9.510
40983SOL     OW24955   9.943   6.397  10.757
40983SOL    HW124956  10.001   6.473  10.737
40983SOL    HW224957  10.010   6.326  10.766
40984SOL     OW24958  10.802   7.360  10.301
40984SOL    HW124959  10.839   7.380  10.215
40984SOL    HW224960  10.881   7.362  10.358
40985SOL     OW24961  10.037   6.133  11.019
40985SOL    HW124962  10.060   6.208  11.077
40985SOL    HW224963  10.104   6.067  11.041
40986SOL     OW24964   9.697   7.315  10.878
40986SOL    HW124965   9.622   7.373  10.856
40986SOL    HW224966   9.656   7.250  10.937
40987SOL     OW24967  10.965   6.466  10.561
40987SOL    HW124968  10.973   6.387  10.506
40987SOL    HW224969  10.964   6.538  10.494
40988SOL     OW24970  10.597   5.915   9.725
40988SOL    HW124971  10.596   5.819   9.734
40988SOL    HW224972  10.586   5.942   9.818
40989SOL     OW24973   9.911   6.329   9.970
40989SOL    HW124974   9.950   6.416   9.957
40989SOL    HW224975   9.829   6.333   9.919
40990SOL     OW24976  11.045   5.954  10.910
40990SOL    HW124977  11.028   6.030  10.854
40990SOL    HW224978  10.974   5.957  10.975
40991SOL     OW24979  11.054   6.506  10.813
40991SOL    HW124980  11.044   6.602  10.818
40991SOL    HW224981  11.033   6.487  10.719
40992SOL     OW24982  10.169   6.948   9.340
40992SOL    HW124983  10.165   6.962   9.436
40992SOL    HW224984  10.199   7.033   9.305
40993SOL     OW24985   9.984   7.393  10.256
40993SOL    HW124986   9.964   7.484  10.228
40993SOL    HW224987  10.078   7.384  10.237
40994SOL     OW24988  10.188   6.544  10.162
40994SOL    HW124989  10.237   6.466  10.196
40994SOL    HW224990  10.158   6.588  10.243
40995SOL     OW24991  10.434   6.568   9.404
40995SOL    HW124992  10.389   6.625   9.339
40995SOL    HW224993  10.508   6.536   9.350
40996SOL     OW24994   0.053   7.129  10.161
40996SOL    HW124995  11.082   7.104  10.101
40996SOL    HW224996   0.066   7.047  10.210
40997SOL     OW24997   9.407   6.828   9.969
40997SOL    HW124998   9.420   6.788  10.056
40997SOL    HW224999   9.487   6.799   9.922
40998SOL     OW25000   9.993   7.000  10.940
40998SOL    HW125001   9.924   6.942  10.977
40998SOL    HW225002   9.943   7.079  10.917
40999SOL     OW25003  11.098   5.757  10.533
40999SOL    HW125004   0.043   5.680  10.568
40999SOL    HW225005  11.060   5.721  10.452
41000SOL     OW25006   9.732   6.038   9.828
41000SOL    HW125007   9.786   5.971   9.782
41000SOL    HW225008   9.693   5.987   9.901
41001SOL     OW25009  10.995   7.083  10.426
41001SOL    HW125010  10.923   7.040  10.378
41001SOL    HW225011  11.022   7.014  10.488
41002SOL     OW25012   9.655   6.128  10.592
41002SOL    HW125013   9.707   6.073  10.653
41002SOL    HW225014   9.670   6.086  10.506
41003SOL     OW25015  10.147   7.181   9.981
41003SOL    HW125016  10.133   7.248   9.912
41003SOL    HW225017  10.062   7.135   9.983
41004SOL     OW25018  10.731   5.805  10.422
41004SOL    HW125019  10.752   5.720  10.463
41004SOL    HW225020  10.694   5.856  10.497
41005SOL     OW25021  10.328   5.592  10.453
41005SOL    HW125022  10.277   5.520  10.412
41005SOL    HW225023  10.419   5.552  10.454
41006SOL     OW25024  10.104   6.928   9.620
41006SOL    HW125025  10.065   6.840   9.633
41006SOL    HW225026  10.171   6.931   9.690
41007SOL     OW25027   9.907   7.151  10.591
41007SOL    HW125028   9.912   7.235  10.640
41007SOL    HW225029   9.992   7.152  10.545
41008SOL     OW25030  10.658   5.635   9.511
41008SOL    HW125031  10.663   5.582   9.431
41008SOL    HW225032  10.573   5.601   9.548
41009SOL     OW25033  10.638   6.057  10.003
41009SOL    HW125034  10.560   6.111   9.984
41009SOL    HW225035  10.618   6.019  10.090
41010SOL     OW25036  10.913   5.778  10.217
41010SOL    HW125037  10.852   5.784  10.292
41010SOL    HW225038  10.882   5.850  10.161
41011SOL     OW25039   9.351   6.653   9.625
41011SOL    HW125040   9.448   6.646   9.624
41011SOL    HW225041   9.325   6.559   9.629
41012SOL     OW25042  10.192   7.237   9.651
41012SOL    HW125043  10.121   7.225   9.586
41012SOL    HW225044  10.171   7.323   9.693
41013SOL     OW25045   9.551   8.101   0.139
41013SOL    HW125046   9.466   8.070   0.172
41013SOL    HW225047   9.560   8.058   0.053
41014SOL     OW25048   9.549   7.714   0.993
41014SOL    HW125049   9.565   7.704   1.089
41014SOL    HW225050   9.458   7.679   0.985
41015SOL     OW25051   9.313   7.843   0.647
41015SOL    HW125052   9.234   7.874   0.696
41015SOL    HW225053   9.275   7.775   0.592
41016SOL     OW25054   9.876   8.749   1.197
41016SOL    HW125055   9.786   8.756   1.159
41016SOL    HW225056   9.889   8.838   1.232
41017SOL     OW25057  10.868   8.964   0.719
41017SOL    HW125058  10.843   8.944   0.811
41017SOL    HW225059  10.821   8.894   0.671
41018SOL     OW25060  10.459   8.147   0.717
41018SOL    HW125061  10.479   8.241   0.704
41018SOL    HW225062  10.423   8.146   0.807
41019SOL     OW25063  11.095   8.063   0.224
41019SOL    HW125064  11.039   8.077   0.148
41019SOL    HW225065  11.059   7.980   0.261
41020SOL     OW25066  10.027   8.610   1.016
41020SOL    HW125067   9.970   8.653   1.082
41020SOL    HW225068  10.070   8.687   0.976
41021SOL     OW25069  10.176   8.205   1.803
41021SOL    HW125070  10.151   8.268   1.872
41021SOL    HW225071  10.193   8.262   1.726
41022SOL     OW25072  10.000   8.475   0.636
41022SOL    HW125073  10.060   8.447   0.707
41022SOL    HW225074   9.929   8.521   0.685
41023SOL     OW25075  10.018   8.611   1.800
41023SOL    HW125076  10.068   8.691   1.827
41023SOL    HW225077   9.935   8.649   1.765
41024SOL     OW25078   9.637   8.883   1.078
41024SOL    HW125079   9.554   8.847   1.042
41024SOL    HW225080   9.675   8.933   1.004
41025SOL     OW25081  10.765   8.950   1.392
41025SOL    HW125082  10.795   9.041   1.404
41025SOL    HW225083  10.685   8.949   1.448
41026SOL     OW25084   9.741   7.842   1.513
41026SOL    HW125085   9.813   7.777   1.514
41026SOL    HW225086   9.662   7.786   1.508
41027SOL     OW25087   9.544   9.165   0.494
41027SOL    HW125088   9.586   9.245   0.532
41027SOL    HW225089   9.581   9.164   0.405
41028SOL     OW25090  10.430   8.785   1.670
41028SOL    HW125091  10.472   8.789   1.757
41028SOL    HW225092  10.379   8.701   1.677
41029SOL     OW25093   9.557   8.871   0.522
41029SOL    HW125094   9.556   8.967   0.541
41029SOL    HW225095   9.490   8.837   0.584
41030SOL     OW25096   9.575   8.535   0.902
41030SOL    HW125097   9.553   8.456   0.953
41030SOL    HW225098   9.530   8.604   0.957
41031SOL     OW25099   9.919   9.242   1.418
41031SOL    HW125100   9.837   9.217   1.464
41031SOL    HW225101   9.934   9.334   1.449
41032SOL     OW25102   9.886   8.443   0.146
41032SOL    HW125103   9.934   8.499   0.085
41032SOL    HW225104   9.928   8.469   0.231
41033SOL     OW25105  10.976   7.528   1.524
41033SOL    HW125106  10.959   7.574   1.441
41033SOL    HW225107  10.926   7.582   1.589
41034SOL     OW25108   9.445   8.102   0.566
41034SOL    HW125109   9.405   8.017   0.586
41034SOL    HW225110   9.429   8.155   0.647
41035SOL     OW25111   9.382   9.052   0.127
41035SOL    HW125112   9.360   8.963   0.160
41035SOL    HW225113   9.351   9.108   0.200
41036SOL     OW25114  10.991   8.407   0.640
41036SOL    HW125115  11.060   8.339   0.647
41036SOL    HW225116  11.031   8.469   0.578
41037SOL     OW25117   9.436   8.186   1.579
41037SOL    HW125118   9.530   8.209   1.577
41037SOL    HW225119   9.400   8.269   1.615
41038SOL     OW25120   9.896   8.852   0.740
41038SOL    HW125121   9.862   8.761   0.748
41038SOL    HW225122   9.884   8.869   0.645
41039SOL     OW25123  10.605   8.689   1.426
41039SOL    HW125124  10.621   8.614   1.366
41039SOL    HW225125  10.671   8.673   1.497
41040SOL     OW25126  10.143   7.471   0.446
41040SOL    HW125127  10.179   7.560   0.466
41040SOL    HW225128  10.050   7.480   0.471
41041SOL     OW25129   9.486   8.398   1.259
41041SOL    HW125130   9.576   8.369   1.235
41041SOL    HW225131   9.429   8.335   1.213
41042SOL     OW25132  10.851   8.464   0.227
41042SOL    HW125133  10.774   8.408   0.248
41042SOL    HW225134  10.913   8.436   0.295
41043SOL     OW25135  10.497   9.252   1.623
41043SOL    HW125136  10.506   9.318   1.554
41043SOL    HW225137  10.506   9.168   1.574
41044SOL     OW25138   9.647   7.677   1.766
41044SOL    HW125139   9.694   7.754   1.798
41044SOL    HW225140   9.557   7.695   1.801
41045SOL     OW25141  10.755   8.877   0.949
41045SOL    HW125142  10.700   8.897   1.027
41045SOL    HW225143  10.733   8.783   0.933
41046SOL     OW25144  10.965   9.182   0.598
41046SOL    HW125145  10.988   9.131   0.520
41046SOL    HW225146  10.936   9.112   0.660
41047SOL     OW25147   9.898   8.165   0.265
41047SOL    HW125148   9.912   8.248   0.218
41047SOL    HW225149   9.835   8.189   0.336
41048SOL     OW25150  10.587   7.790   0.896
41048SOL    HW125151  10.498   7.767   0.926
41048SOL    HW225152  10.641   7.751   0.968
41049SOL     OW25153  10.844   9.093   0.321
41049SOL    HW125154  10.938   9.114   0.312
41049SOL    HW225155  10.824   9.071   0.227
41050SOL     OW25156  10.105   8.061   1.468
41050SOL    HW125157  10.084   8.027   1.558
41050SOL    HW225158  10.052   8.003   1.410
41051SOL     OW25159  10.705   7.919   1.671
41051SOL    HW125160  10.700   7.972   1.752
41051SOL    HW225161  10.751   7.839   1.700
41052SOL     OW25162  10.260   8.341   1.584
41052SOL    HW125163  10.300   8.258   1.550
41052SOL    HW225164  10.218   8.375   1.502
41053SOL     OW25165  10.326   7.854   1.250
41053SOL    HW125166  10.239   7.872   1.289
41053SOL    HW225167  10.304   7.812   1.165
41054SOL     OW25168  10.356   8.130   0.422
41054SOL    HW125169  10.372   8.141   0.517
41054SOL    HW225170  10.268   8.088   0.421
41055SOL     OW25171   9.412   8.275   0.779
41055SOL    HW125172   9.479   8.264   0.849
41055SOL    HW225173   9.360   8.349   0.814
41056SOL     OW25174   9.422   9.290   1.559
41056SOL    HW125175   9.424   9.265   1.654
41056SOL    HW225176   9.327   9.285   1.539
41057SOL     OW25177  10.202   7.817   0.226
41057SOL    HW125178  10.241   7.870   0.153
41057SOL    HW225179  10.209   7.726   0.192
41058SOL     OW25180  11.031   8.050   1.837
41058SOL    HW125181  11.003   8.131   1.790
41058SOL    HW225182  11.013   7.985   1.768
41059SOL     OW25183  10.692   8.619   0.571
41059SOL    HW125184  10.758   8.603   0.503
41059SOL    HW225185  10.622   8.662   0.520
41060SOL     OW25186   9.849   7.647   0.895
41060SOL    HW125187   9.867   7.663   0.990
41060SOL    HW225188   9.846   7.738   0.859
41061SOL     OW25189  10.339   8.914   0.485
41061SOL    HW125190  10.291   8.977   0.428
41061SOL    HW225191  10.310   8.942   0.573
41062SOL     OW25192   9.650   9.260   0.846
41062SOL    HW125193   9.697   9.176   0.863
41062SOL    HW225194   9.711   9.325   0.884
41063SOL     OW25195  11.093   8.480   0.892
41063SOL    HW125196  11.035   8.494   0.816
41063SOL    HW225197  11.032   8.471   0.967
41064SOL     OW25198  10.525   8.990   1.503
41064SOL    HW125199  10.507   8.913   1.560
41064SOL    HW225200  10.476   8.966   1.424
41065SOL     OW25201   9.630   8.409   0.269
41065SOL    HW125202   9.712   8.422   0.219
41065SOL    HW225203   9.601   8.321   0.242
41066SOL     OW25204  10.784   8.204   0.699
41066SOL    HW125205  10.770   8.158   0.783
41066SOL    HW225206  10.860   8.260   0.716
41067SOL     OW25207   9.774   8.717   1.720
41067SOL    HW125208   9.731   8.725   1.632
41067SOL    HW225209   9.695   8.719   1.776
41068SOL     OW25210  10.428   9.202   0.242
41068SOL    HW125211  10.346   9.163   0.280
41068SOL    HW225212  10.441   9.148   0.161
41069SOL     OW25213   9.477   7.737   1.496
41069SOL    HW125214   9.403   7.790   1.530
41069SOL    HW225215   9.478   7.662   1.557
41070SOL     OW25216   9.778   9.186   0.295
41070SOL    HW125217   9.812   9.231   0.375
41070SOL    HW225218   9.855   9.189   0.236
41071SOL     OW25219  10.739   7.561   0.457
41071SOL    HW125220  10.723   7.533   0.364
41071SOL    HW225221  10.836   7.560   0.463
41072SOL     OW25222   9.581   9.247   1.223
41072SOL    HW125223   9.622   9.174   1.271
41072SOL    HW225224   9.524   9.202   1.161
41073SOL     OW25225  10.280   9.158   0.868
41073SOL    HW125226  10.355   9.103   0.896
41073SOL    HW225227  10.230   9.097   0.811
41074SOL     OW25228   9.716   8.131   0.478
41074SOL    HW125229   9.726   8.034   0.487
41074SOL    HW225230   9.625   8.142   0.510
41075SOL     OW25231  10.840   7.667   1.732
41075SOL    HW125232  10.831   7.688   1.828
41075SOL    HW225233  10.770   7.601   1.722
41076SOL     OW25234   9.929   7.554   0.101
41076SOL    HW125235  10.022   7.539   0.123
41076SOL    HW225236   9.922   7.530   0.008
41077SOL     OW25237  10.073   7.703   1.744
41077SOL    HW125238  10.153   7.647   1.752
41077SOL    HW225239  10.021   7.675   1.822
41078SOL     OW25240  10.190   9.002   1.188
41078SOL    HW125241  10.174   8.967   1.099
41078SOL    HW225242  10.229   8.927   1.234
41079SOL     OW25243  10.621   8.045   1.423
41079SOL    HW125244  10.659   8.012   1.506
41079SOL    HW225245  10.653   8.138   1.419
41080SOL     OW25246  10.128   8.854   0.928
41080SOL    HW125247  10.216   8.839   0.889
41080SOL    HW225248  10.072   8.866   0.850
41081SOL     OW25249  10.247   7.948   0.897
41081SOL    HW125250  10.225   7.940   0.801
41081SOL    HW225251  10.264   7.856   0.921
41082SOL     OW25252   9.854   7.497   0.507
41082SOL    HW125253   9.822   7.541   0.586
41082SOL    HW225254   9.850   7.570   0.440
41083SOL     OW25255  10.758   8.614   0.011
41083SOL    HW125256  10.788   8.557   0.085
41083SOL    HW225257  10.692   8.669   0.054
41084SOL     OW25258   9.594   7.518   0.225
41084SOL    HW125259   9.625   7.570   0.148
41084SOL    HW225260   9.662   7.450   0.233
41085SOL     OW25261  10.261   7.712   0.468
41085SOL    HW125262  10.243   7.754   0.382
41085SOL    HW225263  10.357   7.724   0.475
41086SOL     OW25264  10.367   8.126   1.474
41086SOL    HW125265  10.301   8.056   1.475
41086SOL    HW225266  10.451   8.081   1.457
41087SOL     OW25267  10.566   9.013   0.755
41087SOL    HW125268  10.575   9.103   0.720
41087SOL    HW225269  10.640   9.008   0.817
41088SOL     OW25270   9.778   8.605   0.737
41088SOL    HW125271   9.705   8.585   0.799
41088SOL    HW225272   9.739   8.576   0.652
41089SOL     OW25273  10.610   9.267   0.638
41089SOL    HW125274  10.669   9.338   0.608
41089SOL    HW225275  10.545   9.318   0.692
41090SOL     OW25276  10.300   7.968   0.034
41090SOL    HW125277  10.262   8.057   0.025
41090SOL    HW225278  10.391   7.988   0.059
41091SOL     OW25279   9.360   8.006   1.391
41091SOL    HW125280   9.456   8.001   1.375
41091SOL    HW225281   9.355   8.084   1.450
41092SOL     OW25282   9.873   7.678   1.172
41092SOL    HW125283   9.919   7.619   1.232
41092SOL    HW225284   9.781   7.674   1.206
41093SOL     OW25285  10.192   7.899   0.645
41093SOL    HW125286  10.150   7.956   0.578
41093SOL    HW225287  10.208   7.818   0.592
41094SOL     OW25288  10.267   7.543   0.786
41094SOL    HW125289  10.292   7.538   0.693
41094SOL    HW225290  10.280   7.452   0.818
41095SOL     OW25291  10.729   8.613   0.894
41095SOL    HW125292  10.679   8.532   0.913
41095SOL    HW225293  10.726   8.613   0.797
41096SOL     OW25294  10.778   8.035   1.033
41096SOL    HW125295  10.718   7.963   1.012
41096SOL    HW225296  10.864   7.993   1.038
41097SOL     OW25297   0.010   8.285   0.383
41097SOL    HW125298   0.056   8.232   0.451
41097SOL    HW225299   0.014   8.221   0.309
41098SOL     OW25300   9.817   8.879   0.152
41098SOL    HW125301   9.734   8.861   0.200
41098SOL    HW225302   9.812   8.815   0.079
41099SOL     OW25303  10.700   8.045   0.078
41099SOL    HW125304  10.653   8.015   0.159
41099SOL    HW225305  10.750   7.967   0.055
41100SOL     OW25306   9.819   7.680   0.317
41100SOL    HW125307   9.845   7.634   0.235
41100SOL    HW225308   9.797   7.768   0.282
41101SOL     OW25309  11.035   8.681   1.615
41101SOL    HW125310   0.024   8.652   1.595
41101SOL    HW225311  11.032   8.769   1.578
41102SOL     OW25312  10.368   8.796   1.338
41102SOL    HW125313  10.291   8.760   1.384
41102SOL    HW225314  10.442   8.750   1.384
41103SOL     OW25315  10.931   9.082   1.638
41103SOL    HW125316  10.933   9.142   1.562
41103SOL    HW225317  11.020   9.044   1.638
41104SOL     OW25318  10.447   8.665   1.101
41104SOL    HW125319  10.374   8.696   1.155
41104SOL    HW225320  10.429   8.705   1.014
41105SOL     OW25321  10.924   8.545   1.100
41105SOL    HW125322  10.909   8.607   1.174
41105SOL    HW225323  10.861   8.580   1.036
41106SOL     OW25324  10.227   7.544   1.405
41106SOL    HW125325  10.250   7.523   1.313
41106SOL    HW225326  10.309   7.587   1.436
41107SOL     OW25327  10.303   8.556   1.748
41107SOL    HW125328  10.210   8.578   1.768
41107SOL    HW225329  10.294   8.482   1.684
41108SOL     OW25330  10.038   8.514   0.360
41108SOL    HW125331  10.028   8.498   0.456
41108SOL    HW225332  10.113   8.456   0.335
41109SOL     OW25333   9.738   8.246   1.261
41109SOL    HW125334   9.804   8.246   1.333
41109SOL    HW225335   9.691   8.162   1.274
41110SOL     OW25336  10.595   7.826   1.268
41110SOL    HW125337  10.620   7.908   1.315
41110SOL    HW225338  10.500   7.843   1.252
41111SOL     OW25339   9.385   9.017   1.306
41111SOL    HW125340   9.299   9.058   1.331
41111SOL    HW225341   9.449   9.060   1.364
41112SOL     OW25342   9.668   8.549   0.500
41112SOL    HW125343   9.654   8.634   0.456
41112SOL    HW225344   9.657   8.485   0.426
41113SOL     OW25345   9.859   7.983   0.860
41113SOL    HW125346   9.879   8.050   0.791
41113SOL    HW225347   9.926   8.005   0.927
41114SOL     OW25348  10.545   8.772   0.398
41114SOL    HW125349  10.591   8.846   0.438
41114SOL    HW225350  10.452   8.796   0.418
41115SOL     OW25351  10.609   8.917   1.172
41115SOL    HW125352  10.673   8.911   1.246
41115SOL    HW225353  10.543   8.850   1.196
41116SOL     OW25354  10.886   8.085   0.454
41116SOL    HW125355  10.834   8.122   0.527
41116SOL    HW225356  10.936   8.161   0.423
41117SOL     OW25357   9.659   8.954   1.337
41117SOL    HW125358   9.631   8.928   1.247
41117SOL    HW225359   9.754   8.969   1.324
41118SOL     OW25360   9.750   8.177   1.626
41118SOL    HW125361   9.809   8.222   1.563
41118SOL    HW225362   9.784   8.086   1.622
41119SOL     OW25363  10.926   8.217   1.659
41119SOL    HW125364  10.836   8.254   1.669
41119SOL    HW225365  10.966   8.284   1.600
41120SOL     OW25366  10.301   7.556   1.746
41120SOL    HW125367  10.353   7.634   1.722
41120SOL    HW225368  10.353   7.484   1.706
41121SOL     OW25369   9.813   7.455   1.745
41121SOL    HW125370   9.766   7.398   1.683
41121SOL    HW225371   9.751   7.531   1.751
41122SOL     OW25372   9.907   8.324   1.045
41122SOL    HW125373   9.915   8.420   1.038
41122SOL    HW225374   9.844   8.311   1.119
41123SOL     OW25375  10.696   8.309   1.024
41123SOL    HW125376  10.608   8.279   0.999
41123SOL    HW225377  10.739   8.223   1.041
41124SOL     OW25378  10.538   7.954   0.280
41124SOL    HW125379  10.541   7.877   0.340
41124SOL    HW225380  10.478   8.013   0.328
41125SOL     OW25381   9.610   7.659   1.249
41125SOL    HW125382   9.556   7.684   1.326
41125SOL    HW225383   9.590   7.563   1.243
41126SOL     OW25384   9.339   8.756   1.286
41126SOL    HW125385   9.374   8.707   1.363
41126SOL    HW225386   9.365   8.848   1.304
41127SOL     OW25387  10.041   8.088   1.047
41127SOL    HW125388  10.115   8.075   0.985
41127SOL    HW225389  10.008   8.178   1.029
41128SOL     OW25390   9.601   7.504   0.729
41128SOL    HW125391   9.588   7.600   0.712
41128SOL    HW225392   9.555   7.463   0.653
41129SOL     OW25393  10.917   7.842   0.326
41129SOL    HW125394  10.941   7.779   0.396
41129SOL    HW225395  10.895   7.922   0.378
41130SOL     OW25396  10.357   8.180   0.969
41130SOL    HW125397  10.344   8.193   1.066
41130SOL    HW225398  10.322   8.090   0.955
41131SOL     OW25399  10.292   9.013   1.713
41131SOL    HW125400  10.285   9.067   1.632
41131SOL    HW225401  10.322   8.928   1.678
41132SOL     OW25402   9.656   8.349   1.802
41132SOL    HW125403   9.737   8.379   1.847
41132SOL    HW225404   9.688   8.274   1.748
41133SOL     OW25405  10.885   7.747   0.082
41133SOL    HW125406  10.813   7.684   0.088
41133SOL    HW225407  10.893   7.777   0.175
41134SOL     OW25408  10.625   8.297   0.014
41134SOL    HW125409  10.657   8.208   0.041
41134SOL    HW225410  10.646   8.302  11.022
41135SOL     OW25411  10.392   8.806   0.851
41135SOL    HW125412  10.386   8.727   0.792
41135SOL    HW225413  10.452   8.866   0.804
41136SOL     OW25414   9.584   8.258   0.999
41136SOL    HW125415   9.673   8.278   0.966
41136SOL    HW225416   9.593   8.164   1.023
41137SOL     OW25417   9.624   7.979   1.000
41137SOL    HW125418   9.602   7.884   0.988
41137SOL    HW225419   9.700   7.988   0.939
41138SOL     OW25420  10.450   7.820   1.674
41138SOL    HW125421  10.407   7.871   1.745
41138SOL    HW225422  10.538   7.862   1.669
41139SOL     OW25423  10.472   7.641   1.470
41139SOL    HW125424  10.466   7.710   1.539
41139SOL    HW225425  10.515   7.690   1.398
41140SOL     OW25426   9.302   8.791   0.222
41140SOL    HW125427   9.219   8.798   0.171
41140SOL    HW225428   9.314   8.694   0.227
41141SOL     OW25429   9.405   9.210   0.933
41141SOL    HW125430   9.377   9.144   0.867
41141SOL    HW225431   9.496   9.232   0.904
41142SOL     OW25432   9.786   9.034   0.903
41142SOL    HW125433   9.861   9.093   0.919
41142SOL    HW225434   9.825   8.963   0.847
41143SOL     OW25435  10.300   8.220   1.225
41143SOL    HW125436  10.337   8.192   1.311
41143SOL    HW225437  10.206   8.207   1.240
41144SOL     OW25438   9.347   7.967   1.106
41144SOL    HW125439   9.431   7.967   1.059
41144SOL    HW225440   9.373   7.984   1.197
41145SOL     OW25441   9.530   7.965   1.713
41145SOL    HW125442   9.588   7.929   1.645
41145SOL    HW225443   9.481   8.033   1.664
41146SOL     OW25444  10.703   8.371   1.662
41146SOL    HW125445  10.711   8.468   1.668
41146SOL    HW225446  10.676   8.358   1.570
41147SOL     OW25447  10.111   8.012   0.387
41147SOL    HW125448  10.131   7.940   0.324
41147SOL    HW225449  10.038   8.058   0.342
41148SOL     OW25450   9.559   8.985   1.717
41148SOL    HW125451   9.542   9.056   1.780
41148SOL    HW225452   9.558   8.906   1.774
41149SOL     OW25453  10.000   7.922   1.259
41149SOL    HW125454   9.953   7.848   1.217
41149SOL    HW225455  10.004   7.989   1.187
41150SOL     OW25456  10.239   9.146   1.481
41150SOL    HW125457  10.210   9.115   1.394
41150SOL    HW225458  10.233   9.243   1.472
41151SOL     OW25459   9.768   7.922   0.200
41151SOL    HW125460   9.830   7.997   0.210
41151SOL    HW225461   9.683   7.967   0.203
41152SOL     OW25462   9.429   8.570   1.467
41152SOL    HW125463   9.438   8.517   1.549
41152SOL    HW225464   9.445   8.503   1.397
41153SOL     OW25465  10.612   8.493   1.224
41153SOL    HW125466  10.635   8.440   1.146
41153SOL    HW225467  10.552   8.561   1.186
41154SOL     OW25468  10.626   8.323   0.308
41154SOL    HW125469  10.554   8.277   0.352
41154SOL    HW225470  10.601   8.318   0.215
41155SOL     OW25471  11.036   9.199   1.125
41155SOL    HW125472   0.008   9.218   1.063
41155SOL    HW225473  11.021   9.103   1.111
41156SOL     OW25474  10.566   9.173   1.077
41156SOL    HW125475  10.651   9.188   1.031
41156SOL    HW225476  10.578   9.083   1.113
41157SOL     OW25477   9.419   8.699   1.041
41157SOL    HW125478   9.384   8.722   1.130
41157SOL    HW225479   9.338   8.675   0.994
41158SOL     OW25480  10.006   9.093   1.746
41158SOL    HW125481   9.958   9.172   1.716
41158SOL    HW225482  10.090   9.100   1.698
41159SOL     OW25483  10.210   7.554   0.153
41159SOL    HW125484  10.266   7.528   0.079
41159SOL    HW225485  10.242   7.491   0.221
41160SOL     OW25486  11.028   7.585   0.536
41160SOL    HW125487  11.086   7.589   0.456
41160SOL    HW225488  11.036   7.491   0.564
41161SOL     OW25489   9.465   9.230   1.827
41161SOL    HW125490   9.418   9.162   1.879
41161SOL    HW225491   9.502   9.285   1.898
41162SOL     OW25492  10.573   8.393   0.672
41162SOL    HW125493  10.643   8.324   0.671
41162SOL    HW225494  10.618   8.465   0.624
41163SOL     OW25495  10.103   8.700   1.427
41163SOL    HW125496  10.077   8.751   1.506
41163SOL    HW225497  10.029   8.719   1.367
41164SOL     OW25498  10.006   9.067   0.158
41164SOL    HW125499  10.008   9.063   0.062
41164SOL    HW225500   9.939   8.997   0.178
41165SOL     OW25501   9.563   7.766   0.708
41165SOL    HW125502   9.476   7.806   0.687
41165SOL    HW225503   9.568   7.777   0.804
41166SOL     OW25504  10.534   9.062   0.038
41166SOL    HW125505  10.521   8.967   0.055
41166SOL    HW225506  10.477   9.077  11.062
41167SOL     OW25507  10.143   8.447   1.367
41167SOL    HW125508  10.179   8.462   1.279
41167SOL    HW225509  10.133   8.538   1.402
41168SOL     OW25510  10.226   8.354   0.252
41168SOL    HW125511  10.302   8.394   0.205
41168SOL    HW225512  10.265   8.277   0.295
41169SOL     OW25513  10.812   9.067   0.063
41169SOL    HW125514  10.717   9.063   0.041
41169SOL    HW225515  10.856   9.065  11.079
41170SOL     OW25516   9.653   8.723   1.487
41170SOL    HW125517   9.640   8.801   1.429
41170SOL    HW225518   9.571   8.672   1.475
41171SOL     OW25519  10.877   8.741   1.277
41171SOL    HW125520  10.965   8.739   1.317
41171SOL    HW225521  10.832   8.812   1.327
41172SOL     OW25522  10.363   8.570   0.729
41172SOL    HW125523  10.292   8.510   0.757
41172SOL    HW225524  10.433   8.508   0.701
41173SOL     OW25525  10.345   7.685   0.995
41173SOL    HW125526  10.309   7.641   0.915
41173SOL    HW225527  10.358   7.609   1.054
41174SOL     OW25528   9.935   8.941   0.477
41174SOL    HW125529   9.982   8.892   0.407
41174SOL    HW225530   9.852   8.966   0.435
41175SOL     OW25531   9.565   8.810   0.262
41175SOL    HW125532   9.469   8.809   0.244
41175SOL    HW225533   9.565   8.841   0.355
41176SOL     OW25534   9.432   8.443   1.695
41176SOL    HW125535   9.362   8.435   1.763
41176SOL    HW225536   9.514   8.420   1.746
41177SOL     OW25537   9.976   7.627   1.495
41177SOL    HW125538  10.064   7.596   1.469
41177SOL    HW225539   9.995   7.666   1.582
41178SOL     OW25540   9.431   7.832   0.006
41178SOL    HW125541   9.356   7.776  11.081
41178SOL    HW225542   9.402   7.916  11.070
41179SOL     OW25543  10.714   8.304   1.393
41179SOL    HW125544  10.669   8.364   1.330
41179SOL    HW225545  10.807   8.317   1.370
41180SOL     OW25546   9.361   7.612   0.322
41180SOL    HW125547   9.359   7.696   0.274
41180SOL    HW225548   9.451   7.580   0.297
41181SOL     OW25549  10.495   8.803   0.114
41181SOL    HW125550  10.401   8.788   0.093
41181SOL    HW225551  10.505   8.764   0.202
41182SOL     OW25552   9.933   8.261   1.445
41182SOL    HW125553   9.988   8.339   1.427
41182SOL    HW225554  10.003   8.192   1.451
41183SOL     OW25555  10.808   9.204   0.953
41183SOL    HW125556  10.836   9.267   0.884
41183SOL    HW225557  10.883   9.208   1.013
41184SOL     OW25558  10.042   7.978   1.709
41184SOL    HW125559  10.073   8.043   1.774
41184SOL    HW225560  10.051   7.892   1.754
41185SOL     OW25561  10.774   8.636   1.621
41185SOL    HW125562  10.756   8.643   1.718
41185SOL    HW225563  10.871   8.647   1.622
41186SOL     OW25564   9.684   9.181   1.558
41186SOL    HW125565   9.598   9.225   1.543
41186SOL    HW225566   9.655   9.095   1.593
41187SOL     OW25567  10.998   8.319   1.228
41187SOL    HW125568  10.994   8.249   1.161
41187SOL    HW225569  10.961   8.396   1.180
41188SOL     OW25570  10.536   7.759   0.479
41188SOL    HW125571  10.598   7.684   0.469
41188SOL    HW225572  10.581   7.814   0.545
41189SOL     OW25573   9.896   8.195   0.674
41189SOL    HW125574   9.928   8.284   0.655
41189SOL    HW225575   9.831   8.179   0.603
41190SOL     OW25576  11.062   7.826   1.642
41190SOL    HW125577  11.028   7.876   1.567
41190SOL    HW225578  10.985   7.775   1.673
41191SOL     OW25579  11.046   8.377   1.484
41191SOL    HW125580  11.037   8.473   1.488
41191SOL    HW225581  11.034   8.356   1.389
41192SOL     OW25582  10.222   8.809   0.055
41192SOL    HW125583  10.140   8.812   0.106
41192SOL    HW225584  10.222   8.894   0.008
41193SOL     OW25585   9.958   9.255   0.916
41193SOL    HW125586   9.933   9.350   0.907
41193SOL    HW225587  10.052   9.258   0.937
41194SOL     OW25588  10.189   8.392   0.840
41194SOL    HW125589  10.237   8.321   0.885
41194SOL    HW225590  10.159   8.448   0.913
41195SOL     OW25591  10.415   8.448   0.083
41195SOL    HW125592  10.388   8.491   0.001
41195SOL    HW225593  10.496   8.399   0.056
41196SOL     OW25594   0.061   8.993   0.844
41196SOL    HW125595  11.076   8.979   0.805
41196SOL    HW225596   0.070   8.917   0.902
41197SOL     OW25597   9.551   8.759   1.867
41197SOL    HW125598   9.472   8.708   1.847
41197SOL    HW225599   9.544   8.768   1.963
41198SOL     OW25600   9.411   8.687   0.660
41198SOL    HW125601   9.414   8.643   0.746
41198SOL    HW225602   9.483   8.645   0.613
41199SOL     OW25603   9.986   8.850   1.615
41199SOL    HW125604   9.910   8.795   1.642
41199SOL    HW225605   9.972   8.932   1.666
41200SOL     OW25606   0.002   7.614   1.213
41200SOL    HW125607  11.088   7.518   1.212
41200SOL    HW225608  11.096   7.637   1.120
41201SOL     OW25609   9.751   7.863   0.524
41201SOL    HW125610   9.776   7.789   0.467
41201SOL    HW225611   9.696   7.823   0.593
41202SOL     OW25612  10.984   8.944   1.092
41202SOL    HW125613  10.904   8.906   1.051
41202SOL    HW225614  11.008   8.876   1.156
41203SOL     OW25615   9.633   7.984   1.287
41203SOL    HW125616   9.692   7.939   1.349
41203SOL    HW225617   9.661   7.950   1.200
41204SOL     OW25618  10.138   9.019   0.664
41204SOL    HW125619  10.113   9.023   0.570
41204SOL    HW225620  10.052   8.998   0.703
41205SOL     OW25621  10.733   7.687   1.090
41205SOL    HW125622  10.759   7.609   1.141
41205SOL    HW225623  10.689   7.741   1.159
41206SOL     OW25624  10.333   7.450   1.155
41206SOL    HW125625  10.281   7.374   1.126
41206SOL    HW225626  10.425   7.415   1.145
41207SOL     OW25627  10.086   8.784   0.315
41207SOL    HW125628  10.049   8.694   0.325
41207SOL    HW225629  10.179   8.768   0.332
41208SOL     OW25630   9.911   9.010   1.273
41208SOL    HW125631   9.913   9.092   1.326
41208SOL    HW225632   9.998   9.014   1.232
41209SOL     OW25633  10.644   7.485   0.216
41209SOL    HW125634  10.673   7.450   0.132
41209SOL    HW225635  10.554   7.447   0.224
41210SOL     OW25636  10.643   7.931   0.672
41210SOL    HW125637  10.570   7.996   0.676
41210SOL    HW225638  10.634   7.885   0.757
41211SOL     OW25639  10.913   7.658   0.884
41211SOL    HW125640  10.843   7.660   0.951
41211SOL    HW225641  10.866   7.680   0.804
41212SOL     OW25642   9.360   8.532   0.276
41212SOL    HW125643   9.456   8.524   0.277
41212SOL    HW225644   9.333   8.445   0.309
41213SOL     OW25645  10.202   9.099   0.351
41213SOL    HW125646  10.124   9.079   0.295
41213SOL    HW225647  10.174   9.183   0.396
41214SOL     OW25648   9.541   8.093   1.995
41214SOL    HW125649   9.449   8.084   2.024
41214SOL    HW225650   9.540   8.072   1.901
41215SOL     OW25651   9.529   7.747   2.860
41215SOL    HW125652   9.558   7.712   2.946
41215SOL    HW225653   9.446   7.695   2.847
41216SOL     OW25654   9.308   7.851   2.482
41216SOL    HW125655   9.230   7.870   2.538
41216SOL    HW225656   9.287   7.764   2.449
41217SOL     OW25657   9.878   8.751   3.050
41217SOL    HW125658   9.791   8.738   3.008
41217SOL    HW225659   9.873   8.844   3.076
41218SOL     OW25660  10.881   8.974   2.576
41218SOL    HW125661  10.845   8.935   2.658
41218SOL    HW225662  10.808   8.959   2.513
41219SOL     OW25663  10.460   8.136   2.558
41219SOL    HW125664  10.489   8.228   2.544
41219SOL    HW225665  10.419   8.143   2.645
41220SOL     OW25666  11.094   8.055   2.098
41220SOL    HW125667  11.064   8.059   2.005
41220SOL    HW225668  11.046   7.977   2.130
41221SOL     OW25669  10.059   8.610   2.905
41221SOL    HW125670   9.991   8.655   2.958
41221SOL    HW225671  10.089   8.683   2.848
41222SOL     OW25672  10.193   8.215   3.682
41222SOL    HW125673  10.166   8.282   3.747
41222SOL    HW225674  10.202   8.266   3.599
41223SOL     OW25675  10.001   8.472   2.518
41223SOL    HW125676  10.061   8.446   2.589
41223SOL    HW225677   9.933   8.524   2.564
41224SOL     OW25678  10.017   8.611   3.663
41224SOL    HW125679  10.067   8.690   3.691
41224SOL    HW225680   9.938   8.651   3.621
41225SOL     OW25681   9.631   8.876   2.936
41225SOL    HW125682   9.562   8.825   2.891
41225SOL    HW225683   9.673   8.928   2.864
41226SOL     OW25684  10.752   8.962   3.242
41226SOL    HW125685  10.790   9.049   3.255
41226SOL    HW225686  10.708   8.946   3.327
41227SOL     OW25687   9.743   7.839   3.383
41227SOL    HW125688   9.815   7.776   3.370
41227SOL    HW225689   9.664   7.784   3.372
41228SOL     OW25690   9.534   9.158   2.338
41228SOL    HW125691   9.563   9.239   2.386
41228SOL    HW225692   9.594   9.160   2.261
41229SOL     OW25693  10.446   8.795   3.552
41229SOL    HW125694  10.488   8.785   3.639
41229SOL    HW225695  10.394   8.713   3.546
41230SOL     OW25696   9.567   8.883   2.395
41230SOL    HW125697   9.557   8.980   2.397
41230SOL    HW225698   9.500   8.854   2.459
41231SOL     OW25699   9.576   8.532   2.768
41231SOL    HW125700   9.581   8.455   2.827
41231SOL    HW225701   9.524   8.595   2.821
41232SOL     OW25702   9.954   9.223   3.315
41232SOL    HW125703   9.861   9.211   3.343
41232SOL    HW225704   9.962   9.321   3.321
41233SOL     OW25705   9.884   8.439   1.970
41233SOL    HW125706   9.935   8.489   1.902
41233SOL    HW225707   9.923   8.473   2.052
41234SOL     OW25708  10.952   7.534   3.372
41234SOL    HW125709  10.921   7.593   3.303
41234SOL    HW225710  10.935   7.584   3.453
41235SOL     OW25711   9.425   8.100   2.426
41235SOL    HW125712   9.389   8.010   2.439
41235SOL    HW225713   9.416   8.139   2.516
41236SOL     OW25714   9.372   9.035   1.982
41236SOL    HW125715   9.356   8.941   1.997
41236SOL    HW225716   9.333   9.077   2.061
41237SOL     OW25717  11.003   8.419   2.483
41237SOL    HW125718  11.070   8.358   2.517
41237SOL    HW225719  11.013   8.406   2.387
41238SOL     OW25720   9.426   8.186   3.438
41238SOL    HW125721   9.511   8.228   3.427
41238SOL    HW225722   9.368   8.260   3.458
41239SOL     OW25723   9.903   8.855   2.628
41239SOL    HW125724   9.863   8.766   2.635
41239SOL    HW225725   9.901   8.866   2.531
41240SOL     OW25726  10.599   8.694   3.293
41240SOL    HW125727  10.614   8.618   3.233
41240SOL    HW225728  10.658   8.673   3.368
41241SOL     OW25729  10.140   7.458   2.355
41241SOL    HW125730  10.170   7.550   2.347
41241SOL    HW225731  10.043   7.468   2.363
41242SOL     OW25732   9.490   8.416   3.131
41242SOL    HW125733   9.581   8.387   3.113
41242SOL    HW225734   9.437   8.351   3.084
41243SOL     OW25735  10.843   8.408   2.043
41243SOL    HW125736  10.765   8.367   2.084
41243SOL    HW225737  10.899   8.424   2.119
41244SOL     OW25738  10.477   9.253   3.462
41244SOL    HW125739  10.496   9.327   3.401
41244SOL    HW225740  10.523   9.178   3.420
41245SOL     OW25741   9.653   7.672   3.632
41245SOL    HW125742   9.703   7.752   3.650
41245SOL    HW225743   9.563   7.698   3.660
41246SOL     OW25744  10.761   8.871   2.807
41246SOL    HW125745  10.704   8.892   2.884
41246SOL    HW225746  10.738   8.777   2.791
41247SOL     OW25747  11.001   9.152   2.425
41247SOL    HW125748  10.954   9.112   2.351
41247SOL    HW225749  10.967   9.100   2.500
41248SOL     OW25750   9.899   8.167   2.115
41248SOL    HW125751   9.906   8.254   2.073
41248SOL    HW225752   9.822   8.178   2.173
41249SOL     OW25753  10.565   7.806   2.778
41249SOL    HW125754  10.479   7.764   2.793
41249SOL    HW225755  10.620   7.762   2.845
41250SOL     OW25756  10.873   9.084   2.157
41250SOL    HW125757  10.916   9.170   2.158
41250SOL    HW225758  10.857   9.073   2.061
41251SOL     OW25759  10.103   8.064   3.338
41251SOL    HW125760  10.077   8.030   3.427
41251SOL    HW225761  10.051   8.008   3.277
41252SOL     OW25762  10.705   7.926   3.538
41252SOL    HW125763  10.704   7.988   3.613
41252SOL    HW225764  10.756   7.851   3.572
41253SOL     OW25765  10.245   8.339   3.448
41253SOL    HW125766  10.286   8.257   3.410
41253SOL    HW225767  10.203   8.376   3.368
41254SOL     OW25768  10.316   7.840   3.102
41254SOL    HW125769  10.229   7.859   3.137
41254SOL    HW225770  10.298   7.794   3.019
41255SOL     OW25771  10.355   8.131   2.285
41255SOL    HW125772  10.370   8.134   2.381
41255SOL    HW225773  10.266   8.090   2.280
41256SOL     OW25774   9.403   8.269   2.657
41256SOL    HW125775   9.476   8.264   2.721
41256SOL    HW225776   9.364   8.356   2.679
41257SOL     OW25777   9.431   9.277   3.437
41257SOL    HW125778   9.444   9.261   3.533
41257SOL    HW225779   9.335   9.286   3.431
41258SOL     OW25780  10.203   7.814   2.078
41258SOL    HW125781  10.239   7.876   2.013
41258SOL    HW225782  10.236   7.731   2.042
41259SOL     OW25783  11.022   8.037   3.695
41259SOL    HW125784  10.985   8.110   3.641
41259SOL    HW225785  11.064   7.984   3.627
41260SOL     OW25786  10.686   8.613   2.439
41260SOL    HW125787  10.739   8.607   2.359
41260SOL    HW225788  10.614   8.671   2.410
41261SOL     OW25789   9.860   7.645   2.760
41261SOL    HW125790   9.861   7.665   2.855
41261SOL    HW225791   9.844   7.731   2.719
41262SOL     OW25792  10.326   8.904   2.354
41262SOL    HW125793  10.290   8.965   2.287
41262SOL    HW225794  10.302   8.948   2.436
41263SOL     OW25795   9.653   9.263   2.720
41263SOL    HW125796   9.708   9.184   2.738
41263SOL    HW225797   9.717   9.336   2.725
41264SOL     OW25798  11.089   8.487   2.740
41264SOL    HW125799  11.030   8.499   2.664
41264SOL    HW225800  11.031   8.492   2.818
41265SOL     OW25801  10.507   8.996   3.373
41265SOL    HW125802  10.500   8.924   3.439
41265SOL    HW225803  10.507   8.944   3.291
41266SOL     OW25804   9.615   8.396   2.114
41266SOL    HW125805   9.699   8.422   2.074
41266SOL    HW225806   9.589   8.320   2.060
41267SOL     OW25807  10.779   8.202   2.589
41267SOL    HW125808  10.753   8.140   2.659
41267SOL    HW225809  10.860   8.240   2.624
41268SOL     OW25810   9.768   8.716   3.585
41268SOL    HW125811   9.726   8.720   3.496
41268SOL    HW225812   9.688   8.719   3.641
41269SOL     OW25813  10.428   9.214   2.111
41269SOL    HW125814  10.355   9.163   2.150
41269SOL    HW225815  10.453   9.161   2.033
41270SOL     OW25816   9.474   7.737   3.360
41270SOL    HW125817   9.392   7.780   3.387
41270SOL    HW225818   9.458   7.643   3.383
41271SOL     OW25819   9.764   9.185   2.180
41271SOL    HW125820   9.812   9.236   2.249
41271SOL    HW225821   9.836   9.153   2.124
41272SOL     OW25822  10.736   7.583   2.310
41272SOL    HW125823  10.722   7.541   2.223
41272SOL    HW225824  10.827   7.558   2.332
41273SOL     OW25825   9.556   9.247   3.081
41273SOL    HW125826   9.605   9.173   3.119
41273SOL    HW225827   9.537   9.216   2.991
41274SOL     OW25828  10.288   9.161   2.743
41274SOL    HW125829  10.373   9.114   2.742
41274SOL    HW225830  10.238   9.110   2.676
41275SOL     OW25831   9.699   8.125   2.321
41275SOL    HW125832   9.725   8.033   2.342
41275SOL    HW225833   9.607   8.125   2.351
41276SOL     OW25834  10.845   7.679   3.596
41276SOL    HW125835  10.831   7.693   3.693
41276SOL    HW225836  10.781   7.609   3.578
41277SOL     OW25837   9.937   7.575   1.949
41277SOL    HW125838  10.001   7.514   1.988
41277SOL    HW225839   9.892   7.519   1.882
41278SOL     OW25840  10.074   7.724   3.603
41278SOL    HW125841  10.153   7.667   3.607
41278SOL    HW225842  10.023   7.691   3.679
41279SOL     OW25843  10.203   8.994   3.060
41279SOL    HW125844  10.186   8.976   2.965
41279SOL    HW225845  10.247   8.911   3.087
41280SOL     OW25846  10.630   8.050   3.290
41280SOL    HW125847  10.674   8.009   3.367
41280SOL    HW225848  10.671   8.138   3.286
41281SOL     OW25849  10.138   8.859   2.801
41281SOL    HW125850  10.224   8.845   2.757
41281SOL    HW225851  10.076   8.859   2.726
41282SOL     OW25852  10.243   7.961   2.768
41282SOL    HW125853  10.223   7.955   2.672
41282SOL    HW225854  10.263   7.869   2.789
41283SOL     OW25855   9.875   7.506   2.355
41283SOL    HW125856   9.802   7.512   2.419
41283SOL    HW225857   9.855   7.581   2.294
41284SOL     OW25858  10.755   8.620   1.886
41284SOL    HW125859  10.773   8.540   1.939
41284SOL    HW225860  10.673   8.653   1.924
41285SOL     OW25861   9.589   7.487   2.048
41285SOL    HW125862   9.650   7.561   2.039
41285SOL    HW225863   9.646   7.422   2.093
41286SOL     OW25864  10.243   7.713   2.350
41286SOL    HW125865  10.225   7.759   2.266
41286SOL    HW225866  10.340   7.720   2.354
41287SOL     OW25867  10.367   8.127   3.329
41287SOL    HW125868  10.309   8.049   3.332
41287SOL    HW225869  10.456   8.090   3.324
41288SOL     OW25870  10.535   9.045   2.649
41288SOL    HW125871  10.548   9.105   2.574
41288SOL    HW225872  10.621   9.047   2.692
41289SOL     OW25873   9.783   8.615   2.608
41289SOL    HW125874   9.709   8.583   2.664
41289SOL    HW225875   9.747   8.596   2.518
41290SOL     OW25876  10.579   9.263   2.454
41290SOL    HW125877  10.623   9.321   2.389
41290SOL    HW225878  10.548   9.327   2.519
41291SOL     OW25879  10.338   7.983   1.879
41291SOL    HW125880  10.288   8.061   1.848
41291SOL    HW225881  10.409   8.024   1.931
41292SOL     OW25882   9.377   8.002   3.258
41292SOL    HW125883   9.471   7.981   3.242
41292SOL    HW225884   9.382   8.079   3.318
41293SOL     OW25885   9.870   7.706   3.033
41293SOL    HW125886   9.916   7.624   3.054
41293SOL    HW225887   9.779   7.685   3.062
41294SOL     OW25888  10.189   7.925   2.513
41294SOL    HW125889  10.137   7.968   2.444
41294SOL    HW225890  10.206   7.838   2.474
41295SOL     OW25891  10.352   7.522   2.620
41295SOL    HW125892  10.307   7.509   2.536
41295SOL    HW225893  10.322   7.444   2.670
41296SOL     OW25894  10.732   8.605   2.745
41296SOL    HW125895  10.709   8.512   2.763
41296SOL    HW225896  10.718   8.611   2.649
41297SOL     OW25897  10.772   8.044   2.855
41297SOL    HW125898  10.718   7.964   2.862
41297SOL    HW225899  10.861   8.014   2.880
41298SOL     OW25900   0.003   8.277   2.249
41298SOL    HW125901   0.055   8.226   2.315
41298SOL    HW225902   0.006   8.213   2.175
41299SOL     OW25903   9.798   8.881   1.977
41299SOL    HW125904   9.721   8.861   2.032
41299SOL    HW225905   9.780   8.829   1.897
41300SOL     OW25906  10.709   8.034   1.932
41300SOL    HW125907  10.647   8.003   2.002
41300SOL    HW225908  10.793   8.034   1.979
41301SOL     OW25909   9.833   7.692   2.173
41301SOL    HW125910   9.876   7.660   2.092
41301SOL    HW225911   9.803   7.781   2.145
41302SOL     OW25912  11.025   8.678   3.440
41302SOL    HW125913   0.012   8.637   3.444
41302SOL    HW225914  11.047   8.772   3.441
41303SOL     OW25915  10.362   8.807   3.212
41303SOL    HW125916  10.288   8.754   3.245
41303SOL    HW225917  10.440   8.759   3.247
41304SOL     OW25918  10.931   9.064   3.497
41304SOL    HW125919  10.939   9.126   3.423
41304SOL    HW225920  11.021   9.033   3.508
41305SOL     OW25921  10.446   8.677   2.964
41305SOL    HW125922  10.359   8.679   3.005
41305SOL    HW225923  10.428   8.705   2.873
41306SOL     OW25924  10.937   8.553   2.964
41306SOL    HW125925  10.922   8.614   3.039
41306SOL    HW225926  10.869   8.584   2.903
41307SOL     OW25927  10.226   7.541   3.251
41307SOL    HW125928  10.258   7.514   3.162
41307SOL    HW225929  10.306   7.583   3.288
41308SOL     OW25930  10.309   8.563   3.599
41308SOL    HW125931  10.219   8.586   3.625
41308SOL    HW225932  10.296   8.486   3.541
41309SOL     OW25933  10.016   8.499   2.210
41309SOL    HW125934  10.009   8.482   2.306
41309SOL    HW225935  10.094   8.445   2.186
41310SOL     OW25936   9.729   8.253   3.136
41310SOL    HW125937   9.803   8.249   3.200
41310SOL    HW225938   9.691   8.164   3.142
41311SOL     OW25939  10.592   7.832   3.136
41311SOL    HW125940  10.617   7.914   3.183
41311SOL    HW225941  10.497   7.847   3.119
41312SOL     OW25942   9.375   9.017   3.201
41312SOL    HW125943   9.360   9.109   3.175
41312SOL    HW225944   9.472   9.009   3.199
41313SOL     OW25945   9.682   8.560   2.366
41313SOL    HW125946   9.683   8.624   2.294
41313SOL    HW225947   9.655   8.479   2.319
41314SOL     OW25948   9.839   7.983   2.698
41314SOL    HW125949   9.864   8.048   2.630
41314SOL    HW225950   9.914   7.987   2.759
41315SOL     OW25951  10.553   8.829   2.229
41315SOL    HW125952  10.607   8.890   2.282
41315SOL    HW225953  10.465   8.841   2.271
41316SOL     OW25954  10.606   8.921   3.027
41316SOL    HW125955  10.666   8.921   3.104
41316SOL    HW225956  10.551   8.842   3.041
41317SOL     OW25957  10.882   8.073   2.329
41317SOL    HW125958  10.832   8.125   2.394
41317SOL    HW225959  10.951   8.134   2.303
41318SOL     OW25960   9.643   8.963   3.182
41318SOL    HW125961   9.633   8.927   3.091
41318SOL    HW225962   9.737   8.989   3.179
41319SOL     OW25963   9.763   8.194   3.521
41319SOL    HW125964   9.815   8.230   3.447
41319SOL    HW225965   9.774   8.099   3.506
41320SOL     OW25966  10.923   8.215   3.530
41320SOL    HW125967  10.835   8.256   3.536
41320SOL    HW225968  10.966   8.273   3.463
41321SOL     OW25969  10.293   7.565   3.604
41321SOL    HW125970  10.354   7.636   3.583
41321SOL    HW225971  10.343   7.487   3.574
41322SOL     OW25972   9.814   7.453   3.620
41322SOL    HW125973   9.773   7.395   3.553
41322SOL    HW225974   9.752   7.529   3.618
41323SOL     OW25975   9.888   8.334   2.922
41323SOL    HW125976   9.924   8.424   2.922
41323SOL    HW225977   9.839   8.328   3.006
41324SOL     OW25978  10.696   8.313   2.880
41324SOL    HW125979  10.605   8.284   2.864
41324SOL    HW225980  10.742   8.227   2.888
41325SOL     OW25981  10.528   7.969   2.131
41325SOL    HW125982  10.535   7.892   2.190
41325SOL    HW225983  10.472   8.028   2.184
41326SOL     OW25984   9.610   7.654   3.107
41326SOL    HW125985   9.557   7.673   3.186
41326SOL    HW225986   9.594   7.557   3.097
41327SOL     OW25987   9.349   8.747   3.155
41327SOL    HW125988   9.374   8.696   3.234
41327SOL    HW225989   9.353   8.840   3.183
41328SOL     OW25990  10.054   8.096   2.927
41328SOL    HW125991  10.114   8.063   2.858
41328SOL    HW225992  10.009   8.174   2.888
41329SOL     OW25993   9.622   7.528   2.454
41329SOL    HW125994   9.586   7.609   2.495
41329SOL    HW225995   9.643   7.473   2.533
41330SOL     OW25996  10.936   7.837   2.197
41330SOL    HW125997  10.960   7.769   2.261
41330SOL    HW225998  10.901   7.908   2.255
41331SOL     OW25999  10.370   8.191   2.827
41331SOL    HW126000  10.352   8.210   2.921
41331SOL    HW226001  10.330   8.102   2.817
41332SOL     OW26002  10.289   9.017   3.552
41332SOL    HW126003  10.360   9.067   3.511
41332SOL    HW226004  10.320   8.925   3.543
41333SOL     OW26005  10.813   7.724   1.986
41333SOL    HW126006  10.751   7.663   2.028
41333SOL    HW226007  10.857   7.765   2.063
41334SOL     OW26008  10.594   8.282   1.892
41334SOL    HW126009  10.645   8.200   1.906
41334SOL    HW226010  10.627   8.310   1.805
41335SOL     OW26011  10.382   8.802   2.714
41335SOL    HW126012  10.378   8.724   2.654
41335SOL    HW226013  10.445   8.861   2.670
41336SOL     OW26014   9.593   8.270   2.873
41336SOL    HW126015   9.688   8.282   2.858
41336SOL    HW226016   9.590   8.175   2.891
41337SOL     OW26017   9.640   7.994   2.873
41337SOL    HW126018   9.606   7.903   2.860
41337SOL    HW226019   9.704   8.000   2.798
41338SOL     OW26020  10.450   7.831   3.546
41338SOL    HW126021  10.404   7.881   3.615
41338SOL    HW226022  10.540   7.869   3.548
41339SOL     OW26023  10.470   7.638   3.344
41339SOL    HW126024  10.467   7.711   3.408
41339SOL    HW226025  10.501   7.683   3.264
41340SOL     OW26026   9.318   8.769   2.052
41340SOL    HW126027   9.226   8.785   2.020
41340SOL    HW226028   9.312   8.679   2.087
41341SOL     OW26029   9.407   9.219   2.811
41341SOL    HW126030   9.379   9.145   2.753
41341SOL    HW226031   9.496   9.239   2.773
41342SOL     OW26032   9.792   9.042   2.786
41342SOL    HW126033   9.866   9.095   2.818
41342SOL    HW226034   9.838   8.975   2.730
41343SOL     OW26035  10.291   8.237   3.097
41343SOL    HW126036  10.330   8.200   3.179
41343SOL    HW226037  10.204   8.195   3.097
41344SOL     OW26038   9.333   7.973   2.975
41344SOL    HW126039   9.405   7.946   2.917
41344SOL    HW226040   9.376   7.978   3.061
41345SOL     OW26041   9.538   7.967   3.586
41345SOL    HW126042   9.571   7.907   3.517
41345SOL    HW226043   9.486   8.031   3.534
41346SOL     OW26044  10.684   8.370   3.517
41346SOL    HW126045  10.695   8.467   3.520
41346SOL    HW226046  10.671   8.354   3.422
41347SOL     OW26047  10.116   8.024   2.243
41347SOL    HW126048  10.124   7.950   2.181
41347SOL    HW226049  10.039   8.072   2.208
41348SOL     OW26050   9.569   8.992   3.584
41348SOL    HW126051   9.546   9.056   3.652
41348SOL    HW226052   9.572   8.908   3.633
41349SOL     OW26053   9.995   7.927   3.131
41349SOL    HW126054   9.951   7.849   3.093
41349SOL    HW226055  10.001   7.988   3.055
41350SOL     OW26056   9.755   7.922   2.058
41350SOL    HW126057   9.822   7.991   2.066
41350SOL    HW226058   9.674   7.975   2.054
41351SOL     OW26059   9.436   8.567   3.343
41351SOL    HW126060   9.453   8.508   3.419
41351SOL    HW226061   9.449   8.506   3.266
41352SOL     OW26062  10.607   8.499   3.082
41352SOL    HW126063  10.637   8.444   3.008
41352SOL    HW226064  10.552   8.566   3.037
41353SOL     OW26065  10.626   8.306   2.166
41353SOL    HW126066  10.553   8.270   2.218
41353SOL    HW226067  10.591   8.302   2.075
41354SOL     OW26068  11.026   9.203   2.982
41354SOL    HW126069   0.004   9.229   2.930
41354SOL    HW226070  11.023   9.106   2.968
41355SOL     OW26071  10.557   9.182   2.946
41355SOL    HW126072  10.640   9.201   2.898
41355SOL    HW226073  10.567   9.087   2.968
41356SOL     OW26074   9.414   8.705   2.898
41356SOL    HW126075   9.382   8.721   2.989
41356SOL    HW226076   9.334   8.670   2.856
41357SOL     OW26077   9.992   9.094   3.607
41357SOL    HW126078   9.946   9.179   3.610
41357SOL    HW226079  10.036   9.098   3.521
41358SOL     OW26080  11.037   7.571   2.396
41358SOL    HW126081  11.092   7.571   2.315
41358SOL    HW226082  11.040   7.478   2.426
41359SOL     OW26083  10.691   9.028   2.364
41359SOL    HW126084  10.745   9.047   2.285
41359SOL    HW226085  10.641   9.111   2.378
41360SOL     OW26086   9.470   9.234   3.702
41360SOL    HW126087   9.419   9.169   3.755
41360SOL    HW226088   9.499   9.295   3.772
41361SOL     OW26089  10.574   8.381   2.532
41361SOL    HW126090  10.649   8.320   2.545
41361SOL    HW226091  10.616   8.451   2.479
41362SOL     OW26092  10.097   8.705   3.287
41362SOL    HW126093  10.069   8.750   3.370
41362SOL    HW226094  10.020   8.722   3.230
41363SOL     OW26095   9.982   9.065   2.026
41363SOL    HW126096   9.996   9.083   1.931
41363SOL    HW226097   9.921   8.989   2.020
41364SOL     OW26098   9.555   7.773   2.564
41364SOL    HW126099   9.467   7.810   2.546
41364SOL    HW226100   9.556   7.764   2.661
41365SOL     OW26101  10.510   9.083   1.894
41365SOL    HW126102  10.515   8.987   1.907
41365SOL    HW226103  10.451   9.090   1.817
41366SOL     OW26104  10.137   8.449   3.228
41366SOL    HW126105  10.198   8.438   3.155
41366SOL    HW226106  10.132   8.546   3.241
41367SOL     OW26107  10.224   8.353   2.134
41367SOL    HW126108  10.299   8.392   2.083
41367SOL    HW226109  10.266   8.277   2.178
41368SOL     OW26110  10.844   9.078   1.894
41368SOL    HW126111  10.747   9.076   1.889
41368SOL    HW226112  10.869   9.076   1.799
41369SOL     OW26113   9.654   8.721   3.351
41369SOL    HW126114   9.644   8.790   3.284
41369SOL    HW226115   9.572   8.669   3.339
41370SOL     OW26116  10.883   8.753   3.144
41370SOL    HW126117  10.944   8.734   3.216
41370SOL    HW226118  10.828   8.825   3.181
41371SOL     OW26119  10.364   8.558   2.601
41371SOL    HW126120  10.293   8.501   2.636
41371SOL    HW226121  10.431   8.492   2.576
41372SOL     OW26122  10.333   7.675   2.850
41372SOL    HW126123  10.322   7.632   2.763
41372SOL    HW226124  10.345   7.597   2.908
41373SOL     OW26125   9.935   8.934   2.366
41373SOL    HW126126   9.988   8.895   2.294
41373SOL    HW226127   9.858   8.967   2.319
41374SOL     OW26128   9.567   8.824   2.137
41374SOL    HW126129   9.471   8.811   2.125
41374SOL    HW226130   9.571   8.850   2.232
41375SOL     OW26131   9.446   8.439   3.591
41375SOL    HW126132   9.352   8.416   3.609
41375SOL    HW226133   9.471   8.471   3.678
41376SOL     OW26134   9.979   7.628   3.354
41376SOL    HW126135  10.063   7.590   3.320
41376SOL    HW226136  10.009   7.671   3.436
41377SOL     OW26137   9.417   7.774   1.864
41377SOL    HW126138   9.322   7.783   1.859
41377SOL    HW226139   9.448   7.856   1.822
41378SOL     OW26140  10.719   8.306   3.250
41378SOL    HW126141  10.674   8.365   3.186
41378SOL    HW226142  10.811   8.332   3.240
41379SOL     OW26143   9.355   7.611   2.154
41379SOL    HW126144   9.361   7.701   2.120
41379SOL    HW226145   9.436   7.570   2.119
41380SOL     OW26146  10.517   8.803   1.960
41380SOL    HW126147  10.432   8.758   1.962
41380SOL    HW226148  10.538   8.812   2.055
41381SOL     OW26149   9.934   8.267   3.309
41381SOL    HW126150   9.991   8.340   3.281
41381SOL    HW226151  10.001   8.196   3.318
41382SOL     OW26152  10.795   9.234   2.818
41382SOL    HW126153  10.833   9.282   2.744
41382SOL    HW226154  10.871   9.225   2.878
41383SOL     OW26155  10.027   8.007   3.590
41383SOL    HW126156  10.083   8.057   3.651
41383SOL    HW226157  10.043   7.914   3.613
41384SOL     OW26158  10.767   8.640   3.491
41384SOL    HW126159  10.760   8.642   3.589
41384SOL    HW226160  10.864   8.651   3.480
41385SOL     OW26161   9.690   9.185   3.420
41385SOL    HW126162   9.601   9.225   3.412
41385SOL    HW226163   9.667   9.098   3.456
41386SOL     OW26164  11.008   8.319   3.090
41386SOL    HW126165  11.000   8.242   3.032
41386SOL    HW226166  10.973   8.393   3.037
41387SOL     OW26167  10.520   7.765   2.336
41387SOL    HW126168  10.590   7.700   2.319
41387SOL    HW226169  10.558   7.815   2.410
41388SOL     OW26170   9.891   8.198   2.533
41388SOL    HW126171   9.931   8.284   2.515
41388SOL    HW226172   9.824   8.190   2.463
41389SOL     OW26173  11.063   7.831   3.493
41389SOL    HW126174  11.025   7.883   3.422
41389SOL    HW226175  10.988   7.780   3.528
41390SOL     OW26176  11.025   8.371   3.348
41390SOL    HW126177  11.033   8.467   3.339
41390SOL    HW226178  11.031   8.339   3.256
41391SOL     OW26179  10.171   8.812   1.890
41391SOL    HW126180  10.151   8.828   1.983
41391SOL    HW226181  10.191   8.901   1.855
41392SOL     OW26182   9.973   9.249   2.838
41392SOL    HW126183   9.948   9.335   2.799
41392SOL    HW226184  10.061   9.235   2.803
41393SOL     OW26185  10.195   8.386   2.719
41393SOL    HW126186  10.249   8.316   2.758
41393SOL    HW226187  10.162   8.435   2.796
41394SOL     OW26188  10.410   8.456   1.971
41394SOL    HW126189  10.377   8.499   1.890
41394SOL    HW226190  10.477   8.395   1.935
41395SOL     OW26191   0.073   8.977   2.680
41395SOL    HW126192  11.078   8.987   2.677
41395SOL    HW226193   0.082   8.916   2.756
41396SOL     OW26194   9.543   8.759   3.728
41396SOL    HW126195   9.455   8.723   3.712
41396SOL    HW226196   9.533   8.790   3.820
41397SOL     OW26197   9.398   8.711   2.534
41397SOL    HW126198   9.389   8.645   2.604
41397SOL    HW226199   9.468   8.672   2.480
41398SOL     OW26200   9.975   8.854   3.481
41398SOL    HW126201   9.897   8.801   3.506
41398SOL    HW226202   9.973   8.925   3.548
41399SOL     OW26203   0.005   7.624   3.036
41399SOL    HW126204   0.013   7.543   3.089
41399SOL    HW226205  11.068   7.590   2.954
41400SOL     OW26206   9.758   7.866   2.394
41400SOL    HW126207   9.785   7.787   2.344
41400SOL    HW226208   9.701   7.830   2.464
41401SOL     OW26209  11.000   8.942   2.949
41401SOL    HW126210  10.916   8.907   2.917
41401SOL    HW226211  11.027   8.875   3.013
41402SOL     OW26212   9.642   7.988   3.158
41402SOL    HW126213   9.706   7.936   3.210
41402SOL    HW226214   9.663   7.963   3.066
41403SOL     OW26215  10.138   9.043   2.543
41403SOL    HW126216  10.134   9.078   2.453
41403SOL    HW226217  10.052   8.998   2.550
41404SOL     OW26218  10.727   7.688   2.957
41404SOL    HW126219  10.758   7.608   3.002
41404SOL    HW226220  10.690   7.739   3.032
41405SOL     OW26221  10.333   7.442   3.017
41405SOL    HW126222  10.276   7.367   2.995
41405SOL    HW226223  10.423   7.404   3.008
41406SOL     OW26224  10.102   8.782   2.181
41406SOL    HW126225  10.060   8.694   2.176
41406SOL    HW226226  10.174   8.767   2.243
41407SOL     OW26227   9.905   9.012   3.136
41407SOL    HW126228   9.914   9.089   3.194
41407SOL    HW226229   9.990   9.013   3.090
41408SOL     OW26230  10.658   7.493   2.072
41408SOL    HW126231  10.672   7.442   1.992
41408SOL    HW226232  10.571   7.456   2.101
41409SOL     OW26233  10.629   7.916   2.539
41409SOL    HW126234  10.564   7.989   2.535
41409SOL    HW226235  10.612   7.876   2.627
41410SOL     OW26236  10.917   7.622   2.752
41410SOL    HW126237  10.842   7.636   2.812
41410SOL    HW226238  10.903   7.692   2.688
41411SOL     OW26239   9.361   8.518   2.182
41411SOL    HW126240   9.453   8.506   2.151
41411SOL    HW226241   9.337   8.425   2.203
41412SOL     OW26242  10.192   9.093   2.203
41412SOL    HW126243  10.117   9.074   2.142
41412SOL    HW226244  10.162   9.172   2.251
41413SOL     OW26245   9.540   8.100   3.853
41413SOL    HW126246   9.450   8.083   3.886
41413SOL    HW226247   9.542   8.052   3.768
41414SOL     OW26248   9.541   7.726   4.723
41414SOL    HW126249   9.563   7.706   4.816
41414SOL    HW226250   9.452   7.686   4.715
41415SOL     OW26251   9.307   7.834   4.366
41415SOL    HW126252   9.226   7.863   4.413
41415SOL    HW226253   9.276   7.752   4.324
41416SOL     OW26254   9.885   8.740   4.925
41416SOL    HW126255   9.800   8.730   4.881
41416SOL    HW226256   9.887   8.836   4.943
41417SOL     OW26257  10.868   8.982   4.440
41417SOL    HW126258  10.838   8.935   4.519
41417SOL    HW226259  10.803   8.956   4.372
41418SOL     OW26260  10.454   8.136   4.423
41418SOL    HW126261  10.488   8.225   4.407
41418SOL    HW226262  10.419   8.145   4.513
41419SOL     OW26263  11.074   8.050   3.955
41419SOL    HW126264  11.054   8.044   3.860
41419SOL    HW226265  11.034   7.969   3.990
41420SOL     OW26266  10.047   8.598   4.754
41420SOL    HW126267   9.990   8.644   4.819
41420SOL    HW226268  10.084   8.675   4.707
41421SOL     OW26269  10.185   8.201   5.531
41421SOL    HW126270  10.157   8.262   5.601
41421SOL    HW226271  10.195   8.259   5.454
41422SOL     OW26272  10.000   8.463   4.378
41422SOL    HW126273  10.061   8.447   4.452
41422SOL    HW226274   9.928   8.514   4.421
41423SOL     OW26275  10.007   8.603   5.520
41423SOL    HW126276  10.052   8.687   5.544
41423SOL    HW226277   9.920   8.635   5.489
41424SOL     OW26278   9.636   8.873   4.794
41424SOL    HW126279   9.560   8.833   4.748
41424SOL    HW226280   9.680   8.927   4.726
41425SOL     OW26281  10.790   8.985   5.121
41425SOL    HW126282  10.760   9.006   5.032
41425SOL    HW226283  10.704   8.978   5.167
41426SOL     OW26284   9.744   7.837   5.246
41426SOL    HW126285   9.818   7.775   5.235
41426SOL    HW226286   9.666   7.781   5.237
41427SOL     OW26287   9.529   9.166   4.194
41427SOL    HW126288   9.559   9.242   4.249
41427SOL    HW226289   9.594   9.167   4.122
41428SOL     OW26290  10.445   8.790   5.388
41428SOL    HW126291  10.479   8.794   5.479
41428SOL    HW226292  10.393   8.707   5.392
41429SOL     OW26293   9.563   8.876   4.253
41429SOL    HW126294   9.557   8.972   4.264
41429SOL    HW226295   9.494   8.844   4.314
41430SOL     OW26296   9.573   8.557   4.615
41430SOL    HW126297   9.576   8.478   4.672
41430SOL    HW226298   9.519   8.617   4.669
41431SOL     OW26299   9.892   9.251   5.120
41431SOL    HW126300   9.825   9.216   5.182
41431SOL    HW226301   9.920   9.334   5.164
41432SOL     OW26302   9.882   8.448   3.831
41432SOL    HW126303   9.935   8.503   3.769
41432SOL    HW226304   9.920   8.477   3.917
41433SOL     OW26305  10.924   7.538   5.222
41433SOL    HW126306  10.906   7.601   5.153
41433SOL    HW226307  10.908   7.587   5.303
41434SOL     OW26308   9.434   8.096   4.292
41434SOL    HW126309   9.401   8.007   4.312
41434SOL    HW226310   9.422   8.143   4.377
41435SOL     OW26311   9.343   9.043   3.843
41435SOL    HW126312   9.332   8.949   3.865
41435SOL    HW226313   9.317   9.087   3.926
41436SOL     OW26314  11.001   8.421   4.347
41436SOL    HW126315  11.061   8.346   4.361
41436SOL    HW226316  11.000   8.427   4.250
41437SOL     OW26317   9.433   8.189   5.306
41437SOL    HW126318   9.524   8.220   5.317
41437SOL    HW226319   9.384   8.267   5.335
41438SOL     OW26320   9.910   8.849   4.488
41438SOL    HW126321   9.877   8.758   4.505
41438SOL    HW226322   9.900   8.853   4.392
41439SOL     OW26323  10.613   8.699   5.144
41439SOL    HW126324  10.612   8.614   5.096
41439SOL    HW226325  10.672   8.678   5.220
41440SOL     OW26326  10.139   7.455   4.216
41440SOL    HW126327  10.173   7.547   4.212
41440SOL    HW226328  10.044   7.467   4.213
41441SOL     OW26329   9.497   8.416   4.982
41441SOL    HW126330   9.586   8.379   4.968
41441SOL    HW226331   9.439   8.350   4.944
41442SOL     OW26332  10.831   8.461   3.957
41442SOL    HW126333  10.761   8.403   3.995
41442SOL    HW226334  10.911   8.417   3.988
41443SOL     OW26335  10.493   9.254   5.323
41443SOL    HW126336  10.483   9.318   5.251
41443SOL    HW226337  10.510   9.171   5.277
41444SOL     OW26338   9.645   7.685   5.503
41444SOL    HW126339   9.703   7.758   5.522
41444SOL    HW226340   9.562   7.715   5.544
41445SOL     OW26341  10.752   8.875   4.680
41445SOL    HW126342  10.692   8.888   4.755
41445SOL    HW226343  10.736   8.782   4.655
41446SOL     OW26344  11.007   9.156   4.298
41446SOL    HW126345  10.963   9.122   4.219
41446SOL    HW226346  10.965   9.101   4.367
41447SOL     OW26347   9.872   8.175   3.956
41447SOL    HW126348   9.918   8.260   3.961
41447SOL    HW226349   9.821   8.172   4.039
41448SOL     OW26350  10.578   7.796   4.639
41448SOL    HW126351  10.490   7.759   4.658
41448SOL    HW226352  10.632   7.752   4.707
41449SOL     OW26353  10.860   9.088   4.015
41449SOL    HW126354  10.919   9.164   4.014
41449SOL    HW226355  10.850   9.071   3.919
41450SOL     OW26356  10.103   8.069   5.182
41450SOL    HW126357  10.089   8.034   5.273
41450SOL    HW226358  10.048   8.009   5.128
41451SOL     OW26359  10.702   7.922   5.398
41451SOL    HW126360  10.708   7.977   5.478
41451SOL    HW226361  10.749   7.841   5.424
41452SOL     OW26362  10.255   8.340   5.308
41452SOL    HW126363  10.294   8.257   5.274
41452SOL    HW226364  10.213   8.376   5.227
41453SOL     OW26365  10.328   7.845   4.977
41453SOL    HW126366  10.240   7.867   5.010
41453SOL    HW226367  10.308   7.797   4.895
41454SOL     OW26368  10.355   8.150   4.145
41454SOL    HW126369  10.366   8.156   4.242
41454SOL    HW226370  10.276   8.094   4.138
41455SOL     OW26371   9.428   8.292   4.497
41455SOL    HW126372   9.492   8.273   4.568
41455SOL    HW226373   9.374   8.361   4.538
41456SOL     OW26374   9.430   9.282   5.289
41456SOL    HW126375   9.441   9.266   5.386
41456SOL    HW226376   9.334   9.288   5.282
41457SOL     OW26377  10.209   7.817   3.933
41457SOL    HW126378  10.248   7.880   3.870
41457SOL    HW226379  10.243   7.735   3.896
41458SOL     OW26380  11.031   8.046   5.561
41458SOL    HW126381  10.987   8.115   5.507
41458SOL    HW226382  11.055   7.983   5.490
41459SOL     OW26383  10.691   8.612   4.300
41459SOL    HW126384  10.736   8.599   4.216
41459SOL    HW226385  10.619   8.670   4.274
41460SOL     OW26386   9.853   7.662   4.609
41460SOL    HW126387   9.859   7.664   4.707
41460SOL    HW226388   9.855   7.757   4.587
41461SOL     OW26389  10.337   8.905   4.217
41461SOL    HW126390  10.301   8.968   4.152
41461SOL    HW226391  10.304   8.942   4.300
41462SOL     OW26392   9.650   9.265   4.585
41462SOL    HW126393   9.695   9.179   4.600
41462SOL    HW226394   9.724   9.327   4.598
41463SOL     OW26395  11.094   8.491   4.607
41463SOL    HW126396  11.034   8.494   4.530
41463SOL    HW226397  11.034   8.484   4.684
41464SOL     OW26398  10.541   8.992   5.220
41464SOL    HW126399  10.522   8.921   5.284
41464SOL    HW226400  10.478   8.969   5.150
41465SOL     OW26401   9.619   8.376   3.931
41465SOL    HW126402   9.707   8.392   3.967
41465SOL    HW226403   9.596   8.286   3.960
41466SOL     OW26404  10.770   8.210   4.451
41466SOL    HW126405  10.761   8.151   4.527
41466SOL    HW226406  10.856   8.251   4.463
41467SOL     OW26407   9.774   8.719   5.445
41467SOL    HW126408   9.733   8.724   5.356
41467SOL    HW226409   9.694   8.724   5.500
41468SOL     OW26410  10.432   9.206   3.976
41468SOL    HW126411  10.354   9.163   4.014
41468SOL    HW226412  10.448   9.155   3.894
41469SOL     OW26413   9.473   7.739   5.225
41469SOL    HW126414   9.401   7.783   5.273
41469SOL    HW226415   9.461   7.647   5.253
41470SOL     OW26416   9.762   9.184   4.043
41470SOL    HW126417   9.811   9.235   4.110
41470SOL    HW226418   9.833   9.150   3.986
41471SOL     OW26419  10.721   7.577   4.174
41471SOL    HW126420  10.710   7.540   4.083
41471SOL    HW226421  10.815   7.564   4.190
41472SOL     OW26422   9.556   9.251   4.956
41472SOL    HW126423   9.609   9.197   5.016
41472SOL    HW226424   9.554   9.197   4.877
41473SOL     OW26425  10.287   9.145   4.602
41473SOL    HW126426  10.372   9.098   4.598
41473SOL    HW226427  10.233   9.094   4.539
41474SOL     OW26428   9.681   8.149   4.155
41474SOL    HW126429   9.702   8.057   4.184
41474SOL    HW226430   9.593   8.156   4.195
41475SOL     OW26431  10.836   7.680   5.458
41475SOL    HW126432  10.826   7.692   5.555
41475SOL    HW226433  10.778   7.604   5.443
41476SOL     OW26434   9.944   7.571   3.821
41476SOL    HW126435  10.021   7.516   3.841
41476SOL    HW226436   9.897   7.516   3.755
41477SOL     OW26437  10.074   7.706   5.460
41477SOL    HW126438  10.153   7.650   5.471
41477SOL    HW226439  10.021   7.682   5.538
41478SOL     OW26440  10.190   8.988   4.921
41478SOL    HW126441  10.174   8.958   4.830
41478SOL    HW226442  10.240   8.915   4.960
41479SOL     OW26443  10.630   8.046   5.153
41479SOL    HW126444  10.671   8.007   5.232
41479SOL    HW226445  10.670   8.134   5.148
41480SOL     OW26446  10.133   8.842   4.659
41480SOL    HW126447  10.219   8.837   4.613
41480SOL    HW226448  10.070   8.853   4.585
41481SOL     OW26449  10.236   7.963   4.631
41481SOL    HW126450  10.214   7.955   4.535
41481SOL    HW226451  10.260   7.872   4.652
41482SOL     OW26452   9.843   7.486   4.232
41482SOL    HW126453   9.843   7.522   4.321
41482SOL    HW226454   9.839   7.566   4.175
41483SOL     OW26455  10.753   8.623   3.749
41483SOL    HW126456  10.780   8.557   3.817
41483SOL    HW226457  10.671   8.656   3.786
41484SOL     OW26458   9.584   7.499   3.921
41484SOL    HW126459   9.642   7.566   3.883
41484SOL    HW226460   9.651   7.433   3.951
41485SOL     OW26461  10.245   7.702   4.217
41485SOL    HW126462  10.231   7.745   4.131
41485SOL    HW226463  10.342   7.712   4.226
41486SOL     OW26464  10.369   8.128   5.194
41486SOL    HW126465  10.307   8.054   5.190
41486SOL    HW226466  10.456   8.085   5.193
41487SOL     OW26467  10.533   9.041   4.519
41487SOL    HW126468  10.537   9.101   4.444
41487SOL    HW226469  10.623   9.044   4.554
41488SOL     OW26470   9.790   8.608   4.467
41488SOL    HW126471   9.713   8.584   4.522
41488SOL    HW226472   9.752   8.601   4.377
41489SOL     OW26473  10.564   9.266   4.313
41489SOL    HW126474  10.616   9.322   4.251
41489SOL    HW226475  10.542   9.329   4.382
41490SOL     OW26476  10.341   7.982   3.755
41490SOL    HW126477  10.306   8.069   3.729
41490SOL    HW226478  10.418   8.004   3.810
41491SOL     OW26479   9.359   8.016   5.116
41491SOL    HW126480   9.453   7.993   5.105
41491SOL    HW226481   9.366   8.090   5.179
41492SOL     OW26482   9.875   7.673   4.880
41492SOL    HW126483   9.919   7.598   4.922
41492SOL    HW226484   9.785   7.667   4.920
41493SOL     OW26485  10.191   7.915   4.379
41493SOL    HW126486  10.161   7.959   4.299
41493SOL    HW226487  10.208   7.824   4.346
41494SOL     OW26488  10.331   7.524   4.500
41494SOL    HW126489  10.304   7.502   4.410
41494SOL    HW226490  10.313   7.440   4.548
41495SOL     OW26491  10.738   8.616   4.604
41495SOL    HW126492  10.693   8.533   4.628
41495SOL    HW226493  10.728   8.616   4.507
41496SOL     OW26494  10.769   8.049   4.716
41496SOL    HW126495  10.717   7.967   4.721
41496SOL    HW226496  10.857   8.020   4.744
41497SOL     OW26497  -0.000   8.271   4.109
41497SOL    HW126498   0.059   8.227   4.173
41497SOL    HW226499   0.002   8.206   4.036
41498SOL     OW26500   9.799   8.875   3.844
41498SOL    HW126501   9.721   8.861   3.901
41498SOL    HW226502   9.779   8.819   3.768
41499SOL     OW26503  10.713   8.042   3.798
41499SOL    HW126504  10.654   8.008   3.867
41499SOL    HW226505  10.800   8.022   3.835
41500SOL     OW26506   9.832   7.676   4.045
41500SOL    HW126507   9.874   7.638   3.965
41500SOL    HW226508   9.807   7.764   4.011
41501SOL     OW26509  11.072   8.716   5.328
41501SOL    HW126510   0.048   8.659   5.311
41501SOL    HW226511  11.092   8.749   5.416
41502SOL     OW26512  10.357   8.794   5.065
41502SOL    HW126513  10.274   8.761   5.103
41502SOL    HW226514  10.424   8.750   5.120
41503SOL     OW26515  10.460   8.674   4.824
41503SOL    HW126516  10.381   8.680   4.879
41503SOL    HW226517  10.427   8.698   4.736
41504SOL     OW26518  10.926   8.537   4.822
41504SOL    HW126519  10.907   8.599   4.894
41504SOL    HW226520  10.870   8.573   4.752
41505SOL     OW26521  10.228   7.539   5.124
41505SOL    HW126522  10.254   7.512   5.033
41505SOL    HW226523  10.309   7.584   5.154
41506SOL     OW26524  10.315   8.562   5.458
41506SOL    HW126525  10.229   8.591   5.492
41506SOL    HW226526  10.291   8.483   5.406
41507SOL     OW26527  10.001   8.489   4.069
41507SOL    HW126528  10.007   8.483   4.166
41507SOL    HW226529  10.085   8.447   4.041
41508SOL     OW26530   9.734   8.247   4.987
41508SOL    HW126531   9.805   8.245   5.055
41508SOL    HW226532   9.688   8.163   5.003
41509SOL     OW26533  10.601   7.827   4.998
41509SOL    HW126534  10.623   7.909   5.046
41509SOL    HW226535  10.508   7.843   4.974
41510SOL     OW26536   9.373   9.020   5.063
41510SOL    HW126537   9.371   9.115   5.046
41510SOL    HW226538   9.468   9.000   5.061
41511SOL     OW26539   9.694   8.580   4.228
41511SOL    HW126540   9.692   8.649   4.160
41511SOL    HW226541   9.683   8.498   4.180
41512SOL     OW26542   9.846   7.982   4.569
41512SOL    HW126543   9.877   8.042   4.498
41512SOL    HW226544   9.909   8.002   4.640
41513SOL     OW26545  10.567   8.813   4.099
41513SOL    HW126546  10.613   8.884   4.148
41513SOL    HW226547  10.478   8.820   4.138
41514SOL     OW26548  10.600   8.902   4.917
41514SOL    HW126549  10.613   8.847   4.996
41514SOL    HW226550  10.523   8.855   4.879
41515SOL     OW26551  10.886   8.070   4.195
41515SOL    HW126552  10.831   8.122   4.255
41515SOL    HW226553  10.951   8.134   4.163
41516SOL     OW26554   9.643   8.970   5.034
41516SOL    HW126555   9.636   8.930   4.945
41516SOL    HW226556   9.738   8.987   5.037
41517SOL     OW26557   9.760   8.179   5.358
41517SOL    HW126558   9.811   8.225   5.289
41517SOL    HW226559   9.785   8.087   5.344
41518SOL     OW26560  10.920   8.207   5.391
41518SOL    HW126561  10.833   8.250   5.394
41518SOL    HW226562  10.966   8.263   5.325
41519SOL     OW26563  10.301   7.561   5.476
41519SOL    HW126564  10.360   7.635   5.454
41519SOL    HW226565  10.349   7.486   5.438
41520SOL     OW26566   9.814   7.464   5.492
41520SOL    HW126567   9.771   7.409   5.422
41520SOL    HW226568   9.754   7.540   5.493
41521SOL     OW26569   9.878   8.328   4.770
41521SOL    HW126570   9.915   8.416   4.783
41521SOL    HW226571   9.835   8.308   4.856
41522SOL     OW26572  10.691   8.327   4.750
41522SOL    HW126573  10.602   8.297   4.727
41522SOL    HW226574  10.734   8.240   4.761
41523SOL     OW26575  10.532   7.974   4.000
41523SOL    HW126576  10.530   7.895   4.057
41523SOL    HW226577  10.487   8.040   4.056
41524SOL     OW26578   9.618   7.650   4.976
41524SOL    HW126579   9.571   7.675   5.057
41524SOL    HW226580   9.597   7.554   4.971
41525SOL     OW26581   9.357   8.749   5.002
41525SOL    HW126582   9.374   8.691   5.078
41525SOL    HW226583   9.353   8.838   5.041
41526SOL     OW26584  10.032   8.091   4.776
41526SOL    HW126585  10.111   8.068   4.723
41526SOL    HW226586  10.005   8.180   4.748
41527SOL     OW26587  10.923   7.831   4.065
41527SOL    HW126588  10.954   7.769   4.132
41527SOL    HW226589  10.898   7.908   4.120
41528SOL     OW26590  10.370   8.189   4.685
41528SOL    HW126591  10.353   8.202   4.780
41528SOL    HW226592  10.330   8.100   4.672
41529SOL     OW26593  10.300   9.014   5.436
41529SOL    HW126594  10.279   9.067   5.357
41529SOL    HW226595  10.322   8.928   5.398
41530SOL     OW26596   9.662   8.359   5.526
41530SOL    HW126597   9.739   8.391   5.575
41530SOL    HW226598   9.699   8.282   5.476
41531SOL     OW26599  10.805   7.725   3.851
41531SOL    HW126600  10.754   7.652   3.890
41531SOL    HW226601  10.851   7.762   3.928
41532SOL     OW26602  10.602   8.286   3.758
41532SOL    HW126603  10.649   8.201   3.770
41532SOL    HW226604  10.628   8.309   3.667
41533SOL     OW26605  10.382   8.803   4.574
41533SOL    HW126606  10.386   8.724   4.516
41533SOL    HW226607  10.444   8.865   4.533
41534SOL     OW26608   9.586   8.266   4.723
41534SOL    HW126609   9.682   8.281   4.716
41534SOL    HW226610   9.585   8.173   4.753
41535SOL     OW26611   9.630   7.984   4.729
41535SOL    HW126612   9.605   7.890   4.720
41535SOL    HW226613   9.700   7.992   4.660
41536SOL     OW26614  10.447   7.815   5.400
41536SOL    HW126615  10.403   7.867   5.469
41536SOL    HW226616  10.535   7.856   5.395
41537SOL     OW26617  10.469   7.643   5.190
41537SOL    HW126618  10.459   7.708   5.262
41537SOL    HW226619  10.510   7.696   5.120
41538SOL     OW26620   9.315   8.770   3.912
41538SOL    HW126621   9.224   8.786   3.876
41538SOL    HW226622   9.303   8.681   3.951
41539SOL     OW26623   9.396   9.260   4.664
41539SOL    HW126624   9.366   9.181   4.614
41539SOL    HW226625   9.490   9.264   4.636
41540SOL     OW26626   9.790   9.044   4.644
41540SOL    HW126627   9.858   9.111   4.664
41540SOL    HW226628   9.842   8.976   4.596
41541SOL     OW26629  10.293   8.217   4.947
41541SOL    HW126630  10.334   8.192   5.032
41541SOL    HW226631  10.200   8.197   4.965
41542SOL     OW26632   9.348   7.970   4.826
41542SOL    HW126633   9.433   7.962   4.781
41542SOL    HW226634   9.373   7.986   4.917
41543SOL     OW26635   9.537   7.960   5.434
41543SOL    HW126636   9.586   7.912   5.365
41543SOL    HW226637   9.492   8.030   5.384
41544SOL     OW26638  10.708   8.376   5.378
41544SOL    HW126639  10.706   8.472   5.385
41544SOL    HW226640  10.692   8.362   5.283
41545SOL     OW26641  10.122   8.007   4.110
41545SOL    HW126642  10.140   7.941   4.041
41545SOL    HW226643  10.043   8.051   4.077
41546SOL     OW26644   9.570   8.987   5.443
41546SOL    HW126645   9.550   9.051   5.512
41546SOL    HW226646   9.576   8.904   5.494
41547SOL     OW26647   9.984   7.926   4.989
41547SOL    HW126648   9.951   7.845   4.948
41547SOL    HW226649   9.991   7.989   4.915
41548SOL     OW26650  10.234   9.152   5.206
41548SOL    HW126651  10.214   9.121   5.117
41548SOL    HW226652  10.233   9.249   5.195
41549SOL     OW26653   9.762   7.916   3.920
41549SOL    HW126654   9.819   7.994   3.914
41549SOL    HW226655   9.675   7.956   3.932
41550SOL     OW26656   9.427   8.572   5.191
41550SOL    HW126657   9.435   8.517   5.272
41550SOL    HW226658   9.452   8.509   5.120
41551SOL     OW26659  10.615   8.498   4.946
41551SOL    HW126660  10.641   8.442   4.871
41551SOL    HW226661  10.559   8.566   4.903
41552SOL     OW26662  10.624   8.308   4.032
41552SOL    HW126663  10.547   8.266   4.072
41552SOL    HW226664  10.602   8.311   3.937
41553SOL     OW26665  11.048   9.191   4.860
41553SOL    HW126666   0.019   9.213   4.798
41553SOL    HW226667  11.025   9.099   4.835
41554SOL     OW26668  10.571   9.168   4.845
41554SOL    HW126669  10.654   9.176   4.794
41554SOL    HW226670  10.567   9.073   4.863
41555SOL     OW26671   9.407   8.717   4.746
41555SOL    HW126672   9.383   8.731   4.840
41555SOL    HW226673   9.337   8.655   4.717
41556SOL     OW26674   9.998   9.100   5.452
41556SOL    HW126675   9.946   9.182   5.452
41556SOL    HW226676  10.072   9.122   5.395
41557SOL     OW26677  11.044   7.580   4.263
41557SOL    HW126678  11.096   7.579   4.180
41557SOL    HW226679  11.042   7.487   4.290
41558SOL     OW26680  10.679   9.032   4.225
41558SOL    HW126681  10.734   9.049   4.146
41558SOL    HW226682  10.629   9.115   4.237
41559SOL     OW26683   9.470   9.242   5.551
41559SOL    HW126684   9.422   9.173   5.601
41559SOL    HW226685   9.516   9.288   5.623
41560SOL     OW26686  10.565   8.381   4.394
41560SOL    HW126687  10.641   8.323   4.415
41560SOL    HW226688  10.608   8.449   4.339
41561SOL     OW26689  10.088   8.699   5.145
41561SOL    HW126690  10.064   8.745   5.228
41561SOL    HW226691  10.009   8.715   5.091
41562SOL     OW26692   9.985   9.063   3.886
41562SOL    HW126693  10.000   9.079   3.791
41562SOL    HW226694   9.923   8.987   3.881
41563SOL     OW26695   9.550   7.744   4.428
41563SOL    HW126696   9.465   7.791   4.416
41563SOL    HW226697   9.574   7.767   4.519
41564SOL     OW26698  10.510   9.068   3.755
41564SOL    HW126699  10.516   8.975   3.785
41564SOL    HW226700  10.448   9.062   3.682
41565SOL     OW26701  10.145   8.449   5.086
41565SOL    HW126702  10.196   8.457   5.005
41565SOL    HW226703  10.128   8.542   5.110
41566SOL     OW26704  10.223   8.357   3.994
41566SOL    HW126705  10.301   8.396   3.950
41566SOL    HW226706  10.261   8.280   4.039
41567SOL     OW26707  10.841   9.073   3.752
41567SOL    HW126708  10.744   9.075   3.746
41567SOL    HW226709  10.869   9.067   3.659
41568SOL     OW26710   9.651   8.726   5.208
41568SOL    HW126711   9.637   8.796   5.143
41568SOL    HW226712   9.572   8.669   5.198
41569SOL     OW26713  10.892   8.757   5.004
41569SOL    HW126714  10.939   8.722   5.081
41569SOL    HW226715  10.833   8.822   5.046
41570SOL     OW26716  10.371   8.562   4.455
41570SOL    HW126717  10.295   8.511   4.487
41570SOL    HW226718  10.434   8.491   4.434
41571SOL     OW26719  10.339   7.677   4.715
41571SOL    HW126720  10.325   7.634   4.628
41571SOL    HW226721  10.347   7.598   4.773
41572SOL     OW26722   9.925   8.917   4.224
41572SOL    HW126723   9.982   8.896   4.149
41572SOL    HW226724   9.852   8.966   4.183
41573SOL     OW26725   9.564   8.837   3.993
41573SOL    HW126726   9.469   8.813   3.983
41573SOL    HW226727   9.569   8.856   4.089
41574SOL     OW26728   9.438   8.447   5.420
41574SOL    HW126729   9.367   8.439   5.488
41574SOL    HW226730   9.518   8.418   5.469
41575SOL     OW26731   9.981   7.636   5.208
41575SOL    HW126732  10.065   7.595   5.181
41575SOL    HW226733  10.004   7.671   5.296
41576SOL     OW26734   9.415   7.767   3.731
41576SOL    HW126735   9.322   7.758   3.707
41576SOL    HW226736   9.436   7.854   3.693
41577SOL     OW26737  10.722   8.304   5.114
41577SOL    HW126738  10.668   8.359   5.055
41577SOL    HW226739  10.811   8.316   5.077
41578SOL     OW26740   9.356   7.617   4.015
41578SOL    HW126741   9.359   7.707   3.981
41578SOL    HW226742   9.436   7.579   3.974
41579SOL     OW26743  10.507   8.798   3.833
41579SOL    HW126744  10.426   8.747   3.845
41579SOL    HW226745  10.538   8.807   3.926
41580SOL     OW26746   9.929   8.264   5.163
41580SOL    HW126747   9.985   8.342   5.150
41580SOL    HW226748   9.998   8.195   5.172
41581SOL     OW26749  10.801   9.209   4.691
41581SOL    HW126750  10.820   9.241   4.601
41581SOL    HW226751  10.880   9.239   4.738
41582SOL     OW26752  10.047   7.978   5.419
41582SOL    HW126753  10.070   8.028   5.498
41582SOL    HW226754  10.053   7.885   5.447
41583SOL     OW26755  10.790   8.650   5.348
41583SOL    HW126756  10.762   8.646   5.442
41583SOL    HW226757  10.884   8.669   5.359
41584SOL     OW26758   9.681   9.174   5.279
41584SOL    HW126759   9.593   9.217   5.271
41584SOL    HW226760   9.657   9.091   5.323
41585SOL     OW26761  10.992   8.316   4.958
41585SOL    HW126762  11.001   8.241   4.897
41585SOL    HW226763  10.961   8.389   4.900
41586SOL     OW26764  10.516   7.768   4.199
41586SOL    HW126765  10.585   7.701   4.187
41586SOL    HW226766  10.554   7.821   4.272
41587SOL     OW26767   9.907   8.193   4.381
41587SOL    HW126768   9.946   8.282   4.380
41587SOL    HW226769   9.823   8.207   4.335
41588SOL     OW26770  11.061   7.838   5.363
41588SOL    HW126771  11.027   7.890   5.289
41588SOL    HW226772  10.986   7.781   5.388
41589SOL     OW26773  11.042   8.367   5.215
41589SOL    HW126774  11.023   8.461   5.213
41589SOL    HW226775  11.033   8.340   5.121
41590SOL     OW26776  10.165   8.815   3.751
41590SOL    HW126777  10.154   8.827   3.847
41590SOL    HW226778  10.188   8.904   3.720
41591SOL     OW26779   9.953   9.261   4.645
41591SOL    HW126780   9.950   9.356   4.625
41591SOL    HW226781  10.047   9.244   4.659
41592SOL     OW26782  10.189   8.393   4.568
41592SOL    HW126783  10.231   8.314   4.605
41592SOL    HW226784  10.167   8.446   4.646
41593SOL     OW26785  10.421   8.463   3.831
41593SOL    HW126786  10.387   8.502   3.748
41593SOL    HW226787  10.489   8.401   3.797
41594SOL     OW26788   0.082   8.998   4.565
41594SOL    HW126789   0.026   9.034   4.495
41594SOL    HW226790   0.033   8.918   4.591
41595SOL     OW26791   9.556   8.763   5.590
41595SOL    HW126792   9.478   8.711   5.568
41595SOL    HW226793   9.548   8.769   5.687
41596SOL     OW26794   9.403   8.691   4.380
41596SOL    HW126795   9.412   8.647   4.466
41596SOL    HW226796   9.483   8.662   4.335
41597SOL     OW26797   9.992   8.850   5.344
41597SOL    HW126798   9.914   8.800   5.375
41597SOL    HW226799   9.985   8.933   5.395
41598SOL     OW26800   0.008   7.626   4.915
41598SOL    HW126801   0.014   7.542   4.962
41598SOL    HW226802  11.077   7.597   4.829
41599SOL     OW26803   9.724   7.897   4.249
41599SOL    HW126804   9.792   7.840   4.210
41599SOL    HW226805   9.689   7.843   4.321
41600SOL     OW26806  10.983   8.941   4.816
41600SOL    HW126807  10.904   8.935   4.760
41600SOL    HW226808  10.971   8.864   4.875
41601SOL     OW26809   9.641   7.980   5.022
41601SOL    HW126810   9.702   7.935   5.083
41601SOL    HW226811   9.670   7.949   4.935
41602SOL     OW26812  10.141   9.029   4.403
41602SOL    HW126813  10.135   9.089   4.327
41602SOL    HW226814  10.052   8.991   4.406
41603SOL     OW26815  10.738   7.677   4.823
41603SOL    HW126816  10.754   7.590   4.862
41603SOL    HW226817  10.699   7.727   4.898
41604SOL     OW26818  10.331   7.443   4.875
41604SOL    HW126819  10.280   7.361   4.864
41604SOL    HW226820  10.423   7.408   4.866
41605SOL     OW26821  10.111   8.788   4.040
41605SOL    HW126822  10.063   8.704   4.042
41605SOL    HW226823  10.173   8.778   4.113
41606SOL     OW26824   9.909   9.012   4.990
41606SOL    HW126825   9.908   9.099   5.035
41606SOL    HW226826  10.003   9.004   4.971
41607SOL     OW26827  10.674   7.490   3.930
41607SOL    HW126828  10.689   7.447   3.845
41607SOL    HW226829  10.589   7.449   3.957
41608SOL     OW26830  10.628   7.920   4.398
41608SOL    HW126831  10.562   7.992   4.397
41608SOL    HW226832  10.613   7.876   4.483
41609SOL     OW26833  10.919   7.659   4.619
41609SOL    HW126834  10.847   7.657   4.685
41609SOL    HW226835  10.881   7.713   4.550
41610SOL     OW26836   9.338   8.522   4.031
41610SOL    HW126837   9.431   8.521   4.004
41610SOL    HW226838   9.324   8.428   4.054
41611SOL     OW26839  10.196   9.093   4.056
41611SOL    HW126840  10.121   9.072   3.996
41611SOL    HW226841  10.163   9.172   4.104
41612SOL     OW26842   9.540   8.089   5.723
41612SOL    HW126843   9.448   8.077   5.750
41612SOL    HW226844   9.542   8.067   5.629
41613SOL     OW26845   9.541   7.732   6.590
41613SOL    HW126846   9.564   7.709   6.682
41613SOL    HW226847   9.454   7.690   6.580
41614SOL     OW26848   9.317   7.850   6.207
41614SOL    HW126849   9.237   7.873   6.258
41614SOL    HW226850   9.292   7.765   6.169
41615SOL     OW26851  10.875   8.979   6.301
41615SOL    HW126852  10.843   8.936   6.382
41615SOL    HW226853  10.808   8.955   6.235
41616SOL     OW26854  10.451   8.133   6.283
41616SOL    HW126855  10.478   8.224   6.262
41616SOL    HW226856  10.417   8.144   6.373
41617SOL     OW26857   0.000   8.048   5.818
41617SOL    HW126858  11.058   8.057   5.731
41617SOL    HW226859  11.042   7.986   5.863
41618SOL     OW26860  10.085   8.571   6.564
41618SOL    HW126861  10.068   8.575   6.657
41618SOL    HW226862  10.106   8.664   6.541
41619SOL     OW26863  10.181   8.203   7.394
41619SOL    HW126864  10.153   8.264   7.463
41619SOL    HW226865  10.193   8.262   7.317
41620SOL     OW26866  10.007   8.487   6.241
41620SOL    HW126867  10.065   8.449   6.309
41620SOL    HW226868   9.938   8.531   6.295
41621SOL     OW26869  10.021   8.607   7.385
41621SOL    HW126870  10.062   8.691   7.414
41621SOL    HW226871   9.933   8.636   7.354
41622SOL     OW26872   9.621   8.879   6.657
41622SOL    HW126873   9.544   8.823   6.633
41622SOL    HW226874   9.632   8.935   6.578
41623SOL     OW26875  10.767   8.952   6.986
41623SOL    HW126876  10.778   9.048   6.977
41623SOL    HW226877  10.680   8.948   7.030
41624SOL     OW26878   9.742   7.842   7.097
41624SOL    HW126879   9.817   7.782   7.093
41624SOL    HW226880   9.665   7.784   7.090
41625SOL     OW26881   9.531   9.155   6.064
41625SOL    HW126882   9.553   9.237   6.113
41625SOL    HW226883   9.595   9.157   5.991
41626SOL     OW26884  10.439   8.795   7.255
41626SOL    HW126885  10.483   8.789   7.340
41626SOL    HW226886  10.389   8.711   7.254
41627SOL     OW26887   9.577   8.882   6.117
41627SOL    HW126888   9.564   8.979   6.117
41627SOL    HW226889   9.504   8.853   6.174
41628SOL     OW26890   9.583   8.531   6.491
41628SOL    HW126891   9.578   8.455   6.551
41628SOL    HW226892   9.527   8.597   6.537
41629SOL     OW26893   9.901   9.241   6.985
41629SOL    HW126894   9.829   9.218   7.047
41629SOL    HW226895   9.930   9.328   7.018
41630SOL     OW26896   9.881   8.446   5.704
41630SOL    HW126897   9.933   8.493   5.636
41630SOL    HW226898   9.926   8.476   5.786
41631SOL     OW26899  10.928   7.538   7.090
41631SOL    HW126900  10.914   7.605   7.022
41631SOL    HW226901  10.907   7.584   7.172
41632SOL     OW26902   9.418   8.101   6.152
41632SOL    HW126903   9.389   8.009   6.167
41632SOL    HW226904   9.412   8.139   6.242
41633SOL     OW26905   9.374   9.042   5.702
41633SOL    HW126906   9.355   8.949   5.720
41633SOL    HW226907   9.339   9.085   5.783
41634SOL     OW26908  10.994   8.412   6.179
41634SOL    HW126909  11.058   8.358   6.227
41634SOL    HW226910  11.047   8.452   6.109
41635SOL     OW26911   9.427   8.186   7.166
41635SOL    HW126912   9.513   8.225   7.188
41635SOL    HW226913   9.367   8.260   7.185
41636SOL     OW26914   9.899   8.855   6.353
41636SOL    HW126915   9.860   8.764   6.357
41636SOL    HW226916   9.897   8.870   6.257
41637SOL     OW26917  10.597   8.684   7.016
41637SOL    HW126918  10.615   8.608   6.958
41637SOL    HW226919  10.660   8.671   7.090
41638SOL     OW26920  10.145   7.453   6.083
41638SOL    HW126921  10.175   7.545   6.075
41638SOL    HW226922  10.048   7.464   6.093
41639SOL     OW26923   9.485   8.422   6.834
41639SOL    HW126924   9.574   8.387   6.817
41639SOL    HW226925   9.428   8.351   6.801
41640SOL     OW26926  10.837   8.439   5.778
41640SOL    HW126927  10.765   8.390   5.821
41640SOL    HW226928  10.905   8.438   5.846
41641SOL     OW26929  10.499   9.254   7.185
41641SOL    HW126930  10.491   9.324   7.119
41641SOL    HW226931  10.505   9.172   7.133
41642SOL     OW26932   9.652   7.677   7.361
41642SOL    HW126933   9.709   7.751   7.385
41642SOL    HW226934   9.567   7.704   7.400
41643SOL     OW26935  10.758   8.869   6.531
41643SOL    HW126936  10.701   8.887   6.608
41643SOL    HW226937  10.738   8.776   6.511
41644SOL     OW26938  10.995   9.156   6.147
41644SOL    HW126939  10.961   9.100   6.076
41644SOL    HW226940  10.968   9.104   6.226
41645SOL     OW26941   9.896   8.156   5.837
41645SOL    HW126942   9.897   8.247   5.806
41645SOL    HW226943   9.822   8.155   5.901
41646SOL     OW26944  10.552   7.809   6.492
41646SOL    HW126945  10.467   7.766   6.512
41646SOL    HW226946  10.611   7.767   6.557
41647SOL     OW26947  10.870   9.080   5.877
41647SOL    HW126948  10.920   9.161   5.886
41647SOL    HW226949  10.851   9.078   5.781
41648SOL     OW26950  10.096   8.073   7.055
41648SOL    HW126951  10.082   8.030   7.143
41648SOL    HW226952  10.049   8.012   6.995
41649SOL     OW26953  10.706   7.921   7.260
41649SOL    HW126954  10.710   7.979   7.338
41649SOL    HW226955  10.758   7.844   7.287
41650SOL     OW26956  10.254   8.339   7.165
41650SOL    HW126957  10.291   8.253   7.133
41650SOL    HW226958  10.206   8.369   7.086
41651SOL     OW26959  10.306   7.850   6.824
41651SOL    HW126960  10.221   7.859   6.869
41651SOL    HW226961  10.283   7.802   6.743
41652SOL     OW26962  10.350   8.127   6.010
41652SOL    HW126963  10.363   8.132   6.106
41652SOL    HW226964  10.262   8.084   6.003
41653SOL     OW26965   9.413   8.255   6.378
41653SOL    HW126966   9.485   8.254   6.442
41653SOL    HW226967   9.370   8.339   6.397
41654SOL     OW26968   9.421   9.267   7.149
41654SOL    HW126969   9.431   9.256   7.246
41654SOL    HW226970   9.330   9.298   7.142
41655SOL     OW26971  10.201   7.808   5.797
41655SOL    HW126972  10.227   7.869   5.726
41655SOL    HW226973  10.241   7.727   5.764
41656SOL     OW26974  11.026   8.032   7.423
41656SOL    HW126975  10.991   8.107   7.369
41656SOL    HW226976  11.059   7.974   7.352
41657SOL     OW26977  10.692   8.602   6.161
41657SOL    HW126978  10.739   8.590   6.078
41657SOL    HW226979  10.625   8.667   6.136
41658SOL     OW26980   9.853   7.651   6.480
41658SOL    HW126981   9.863   7.666   6.577
41658SOL    HW226982   9.849   7.741   6.444
41659SOL     OW26983  10.341   8.909   6.077
41659SOL    HW126984  10.297   8.971   6.016
41659SOL    HW226985  10.315   8.946   6.163
41660SOL     OW26986   9.656   9.265   6.441
41660SOL    HW126987   9.713   9.188   6.456
41660SOL    HW226988   9.716   9.340   6.455
41661SOL     OW26989  11.090   8.474   6.467
41661SOL    HW126990  11.036   8.519   6.400
41661SOL    HW226991  11.035   8.476   6.547
41662SOL     OW26992  10.519   9.000   7.079
41662SOL    HW126993  10.500   8.939   7.152
41662SOL    HW226994  10.469   8.959   7.007
41663SOL     OW26995   9.619   8.400   5.836
41663SOL    HW126996   9.707   8.423   5.805
41663SOL    HW226997   9.592   8.331   5.774
41664SOL     OW26998  10.777   8.211   6.308
41664SOL    HW126999  10.770   8.170   6.396
41664SOL    HW227000  10.861   8.257   6.311
41665SOL     OW27001   9.774   8.713   7.304
41665SOL    HW127002   9.730   8.714   7.216
41665SOL    HW227003   9.697   8.721   7.363
41666SOL     OW27004  10.429   9.216   5.834
41666SOL    HW127005  10.359   9.166   5.879
41666SOL    HW227006  10.437   9.172   5.747
41667SOL     OW27007   9.473   7.738   7.090
41667SOL    HW127008   9.394   7.783   7.125
41667SOL    HW227009   9.470   7.654   7.138
41668SOL     OW27010   9.765   9.176   5.908
41668SOL    HW127011   9.813   9.227   5.975
41668SOL    HW227012   9.836   9.142   5.851
41669SOL     OW27013  10.725   7.578   6.036
41669SOL    HW127014  10.711   7.538   5.948
41669SOL    HW227015  10.819   7.562   6.052
41670SOL     OW27016   9.554   9.249   6.813
41670SOL    HW127017   9.604   9.181   6.858
41670SOL    HW227018   9.535   9.210   6.726
41671SOL     OW27019  10.281   9.145   6.468
41671SOL    HW127020  10.368   9.101   6.463
41671SOL    HW227021  10.231   9.096   6.400
41672SOL     OW27022   9.710   8.135   6.045
41672SOL    HW127023   9.728   8.045   6.078
41672SOL    HW227024   9.614   8.140   6.061
41673SOL     OW27025  10.831   7.672   7.323
41673SOL    HW127026  10.824   7.690   7.419
41673SOL    HW227027  10.774   7.595   7.315
41674SOL     OW27028   9.943   7.582   5.694
41674SOL    HW127029  10.018   7.527   5.717
41674SOL    HW227030   9.898   7.527   5.626
41675SOL     OW27031  10.068   7.699   7.324
41675SOL    HW127032  10.149   7.645   7.335
41675SOL    HW227033  10.018   7.680   7.405
41676SOL     OW27034  10.173   8.980   6.790
41676SOL    HW127035  10.187   8.971   6.694
41676SOL    HW227036  10.249   8.933   6.827
41677SOL     OW27037  10.620   8.049   7.018
41677SOL    HW127038  10.664   8.008   7.094
41677SOL    HW227039  10.666   8.134   7.008
41678SOL     OW27040  10.118   8.841   6.522
41678SOL    HW127041  10.208   8.841   6.481
41678SOL    HW227042  10.062   8.855   6.443
41679SOL     OW27043  10.232   7.961   6.493
41679SOL    HW127044  10.216   7.954   6.396
41679SOL    HW227045  10.262   7.872   6.513
41680SOL     OW27046   9.875   7.491   6.086
41680SOL    HW127047   9.798   7.496   6.146
41680SOL    HW227048   9.862   7.573   6.033
41681SOL     OW27049  10.748   8.627   5.607
41681SOL    HW127050  10.773   8.554   5.668
41681SOL    HW227051  10.668   8.660   5.649
41682SOL     OW27052   9.581   7.496   5.784
41682SOL    HW127053   9.639   7.566   5.753
41682SOL    HW227054   9.645   7.431   5.819
41683SOL     OW27055  10.243   7.704   6.072
41683SOL    HW127056  10.222   7.751   5.990
41683SOL    HW227057  10.339   7.719   6.078
41684SOL     OW27058  10.364   8.125   7.052
41684SOL    HW127059  10.310   8.045   7.051
41684SOL    HW227060  10.456   8.092   7.051
41685SOL     OW27061  10.530   9.041   6.375
41685SOL    HW127062  10.546   9.104   6.303
41685SOL    HW227063  10.617   9.037   6.417
41686SOL     OW27064   9.784   8.618   6.338
41686SOL    HW127065   9.710   8.580   6.390
41686SOL    HW227066   9.753   8.598   6.246
41687SOL     OW27067  10.581   9.265   6.186
41687SOL    HW127068  10.626   9.324   6.123
41687SOL    HW227069  10.544   9.328   6.249
41688SOL     OW27070  10.330   7.967   5.611
41688SOL    HW127071  10.289   8.049   5.578
41688SOL    HW227072  10.400   8.001   5.668
41689SOL     OW27073   9.376   8.003   6.981
41689SOL    HW127074   9.470   7.983   6.968
41689SOL    HW227075   9.381   8.081   7.040
41690SOL     OW27076   9.867   7.681   6.755
41690SOL    HW127077   9.914   7.612   6.805
41690SOL    HW227078   9.776   7.668   6.785
41691SOL     OW27079  10.193   7.909   6.240
41691SOL    HW127080  10.145   7.959   6.172
41691SOL    HW227081  10.209   7.824   6.196
41692SOL     OW27082  10.337   7.531   6.354
41692SOL    HW127083  10.307   7.515   6.263
41692SOL    HW227084  10.311   7.448   6.398
41693SOL     OW27085  10.736   8.602   6.464
41693SOL    HW127086  10.686   8.522   6.483
41693SOL    HW227087  10.733   8.604   6.367
41694SOL     OW27088  10.772   8.043   6.585
41694SOL    HW127089  10.717   7.964   6.579
41694SOL    HW227090  10.860   8.008   6.605
41695SOL     OW27091   0.026   8.272   5.964
41695SOL    HW127092   0.061   8.223   6.040
41695SOL    HW227093   0.020   8.199   5.899
41696SOL     OW27094   9.805   8.872   5.703
41696SOL    HW127095   9.726   8.856   5.758
41696SOL    HW227096   9.794   8.809   5.632
41697SOL     OW27097  10.706   8.035   5.660
41697SOL    HW127098  10.643   8.011   5.731
41697SOL    HW227099  10.790   8.006   5.697
41698SOL     OW27100   9.827   7.691   5.919
41698SOL    HW127101   9.873   7.655   5.840
41698SOL    HW227102   9.793   7.775   5.882
41699SOL     OW27103  11.031   8.671   7.156
41699SOL    HW127104   0.019   8.638   7.178
41699SOL    HW227105  11.045   8.766   7.155
41700SOL     OW27106  10.378   8.803   6.919
41700SOL    HW127107  10.302   8.769   6.969
41700SOL    HW227108  10.452   8.759   6.966
41701SOL     OW27109  10.943   9.076   7.213
41701SOL    HW127110  10.943   9.072   7.116
41701SOL    HW227111  10.973   8.988   7.237
41702SOL     OW27112  10.446   8.661   6.677
41702SOL    HW127113  10.380   8.695   6.738
41702SOL    HW227114  10.421   8.702   6.592
41703SOL     OW27115  10.946   8.546   6.695
41703SOL    HW127116  10.921   8.609   6.765
41703SOL    HW227117  10.881   8.568   6.627
41704SOL     OW27118  10.228   7.545   6.983
41704SOL    HW127119  10.258   7.518   6.894
41704SOL    HW227120  10.308   7.591   7.016
41705SOL     OW27121  10.307   8.561   7.323
41705SOL    HW127122  10.215   8.577   7.350
41705SOL    HW227123  10.298   8.482   7.266
41706SOL     OW27124  10.025   8.503   5.933
41706SOL    HW127125  10.022   8.488   6.029
41706SOL    HW227126  10.101   8.447   5.906
41707SOL     OW27127   9.731   8.254   6.851
41707SOL    HW127128   9.801   8.252   6.920
41707SOL    HW227129   9.686   8.169   6.864
41708SOL     OW27130  10.583   7.829   6.863
41708SOL    HW127131  10.607   7.912   6.910
41708SOL    HW227132  10.489   7.844   6.843
41709SOL     OW27133   9.370   9.019   6.920
41709SOL    HW127134   9.355   9.112   6.902
41709SOL    HW227135   9.467   9.015   6.931
41710SOL     OW27136   9.696   8.561   6.095
41710SOL    HW127137   9.683   8.623   6.023
41710SOL    HW227138   9.684   8.476   6.050
41711SOL     OW27139   9.846   7.991   6.431
41711SOL    HW127140   9.866   8.052   6.357
41711SOL    HW227141   9.929   7.993   6.481
41712SOL     OW27142  10.564   8.839   5.945
41712SOL    HW127143  10.618   8.900   5.998
41712SOL    HW227144  10.477   8.853   5.988
41713SOL     OW27145  10.613   8.922   6.756
41713SOL    HW127146  10.681   8.910   6.823
41713SOL    HW227147  10.549   8.852   6.776
41714SOL     OW27148  10.893   8.083   6.057
41714SOL    HW127149  10.831   8.106   6.128
41714SOL    HW227150  10.910   8.169   6.017
41715SOL     OW27151   9.642   8.965   6.911
41715SOL    HW127152   9.621   8.933   6.821
41715SOL    HW227153   9.735   8.991   6.905
41716SOL     OW27154   9.754   8.181   7.220
41716SOL    HW127155   9.806   8.225   7.150
41716SOL    HW227156   9.786   8.090   7.214
41717SOL     OW27157  10.925   8.209   7.255
41717SOL    HW127158  10.837   8.248   7.267
41717SOL    HW227159  10.967   8.276   7.198
41718SOL     OW27160  10.300   7.561   7.327
41718SOL    HW127161  10.356   7.637   7.305
41718SOL    HW227162  10.352   7.488   7.288
41719SOL     OW27163   9.814   7.452   7.341
41719SOL    HW127164   9.769   7.400   7.272
41719SOL    HW227165   9.756   7.530   7.346
41720SOL     OW27166   9.866   8.325   6.630
41720SOL    HW127167   9.915   8.405   6.651
41720SOL    HW227168   9.825   8.299   6.715
41721SOL     OW27169  10.700   8.315   6.609
41721SOL    HW127170  10.610   8.286   6.594
41721SOL    HW227171  10.745   8.229   6.615
41722SOL     OW27172  10.525   7.974   5.857
41722SOL    HW127173  10.527   7.894   5.913
41722SOL    HW227174  10.461   8.029   5.907
41723SOL     OW27175   9.606   7.653   6.836
41723SOL    HW127176   9.555   7.681   6.914
41723SOL    HW227177   9.583   7.558   6.832
41724SOL     OW27178   9.358   8.747   6.865
41724SOL    HW127179   9.375   8.689   6.942
41724SOL    HW227180   9.351   8.836   6.904
41725SOL     OW27181  10.051   8.103   6.648
41725SOL    HW127182  10.113   8.062   6.584
41725SOL    HW227183  10.007   8.174   6.598
41726SOL     OW27184   9.626   7.515   6.186
41726SOL    HW127185   9.593   7.603   6.210
41726SOL    HW227186   9.622   7.469   6.272
41727SOL     OW27187  10.946   7.845   5.931
41727SOL    HW127188  10.965   7.777   5.997
41727SOL    HW227189  10.919   7.920   5.989
41728SOL     OW27190  10.354   8.188   6.558
41728SOL    HW127191  10.344   8.198   6.655
41728SOL    HW227192  10.316   8.100   6.542
41729SOL     OW27193  10.295   9.017   7.297
41729SOL    HW127194  10.286   9.065   7.212
41729SOL    HW227195  10.327   8.929   7.269
41730SOL     OW27196   9.656   8.346   7.399
41730SOL    HW127197   9.737   8.380   7.440
41730SOL    HW227198   9.689   8.273   7.343
41731SOL     OW27199  10.806   7.719   5.719
41731SOL    HW127200  10.741   7.656   5.754
41731SOL    HW227201  10.848   7.755   5.799
41732SOL     OW27202  10.616   8.294   5.613
41732SOL    HW127203  10.652   8.204   5.624
41732SOL    HW227204  10.656   8.321   5.528
41733SOL     OW27205  10.369   8.809   6.434
41733SOL    HW127206  10.373   8.729   6.376
41733SOL    HW227207  10.435   8.869   6.397
41734SOL     OW27208   9.593   8.262   6.587
41734SOL    HW127209   9.688   8.274   6.576
41734SOL    HW227210   9.590   8.167   6.609
41735SOL     OW27211   9.630   7.987   6.587
41735SOL    HW127212   9.603   7.894   6.576
41735SOL    HW227213   9.701   7.994   6.520
41736SOL     OW27214  10.454   7.824   7.265
41736SOL    HW127215  10.411   7.871   7.339
41736SOL    HW227216  10.544   7.861   7.267
41737SOL     OW27217  10.469   7.650   7.056
41737SOL    HW127218  10.467   7.717   7.127
41737SOL    HW227219  10.516   7.699   6.986
41738SOL     OW27220   9.313   8.774   5.781
41738SOL    HW127221   9.220   8.785   5.751
41738SOL    HW227222   9.315   8.681   5.810
41739SOL     OW27223   9.410   9.229   6.537
41739SOL    HW127224   9.381   9.158   6.476
41739SOL    HW227225   9.498   9.251   6.501
41740SOL     OW27226   9.802   9.035   6.523
41740SOL    HW127227   9.865   9.110   6.526
41740SOL    HW227228   9.843   8.979   6.454
41741SOL     OW27229  10.290   8.250   6.831
41741SOL    HW127230  10.329   8.204   6.909
41741SOL    HW227231  10.206   8.203   6.823
41742SOL     OW27232   9.338   7.975   6.697
41742SOL    HW127233   9.415   7.958   6.642
41742SOL    HW227234   9.376   7.984   6.785
41743SOL     OW27235   9.538   7.962   7.307
41743SOL    HW127236   9.587   7.915   7.237
41743SOL    HW227237   9.490   8.030   7.256
41744SOL     OW27238  10.708   8.372   7.246
41744SOL    HW127239  10.714   8.469   7.250
41744SOL    HW227240  10.680   8.356   7.155
41745SOL     OW27241  10.113   8.016   5.958
41745SOL    HW127242  10.122   7.947   5.890
41745SOL    HW227243  10.038   8.069   5.925
41746SOL     OW27244   9.565   8.986   7.309
41746SOL    HW127245   9.544   9.054   7.374
41746SOL    HW227246   9.567   8.905   7.363
41747SOL     OW27247   9.986   7.931   6.854
41747SOL    HW127248   9.943   7.853   6.815
41747SOL    HW227249   9.992   7.993   6.779
41748SOL     OW27250  10.241   9.147   7.069
41748SOL    HW127251  10.211   9.120   6.981
41748SOL    HW227252  10.237   9.245   7.061
41749SOL     OW27253   9.749   7.916   5.786
41749SOL    HW127254   9.815   7.986   5.788
41749SOL    HW227255   9.666   7.967   5.783
41750SOL     OW27256   9.433   8.570   7.056
41750SOL    HW127257   9.432   8.517   7.139
41750SOL    HW227258   9.447   8.502   6.987
41751SOL     OW27259  10.619   8.501   6.810
41751SOL    HW127260  10.649   8.446   6.736
41751SOL    HW227261  10.557   8.562   6.766
41752SOL     OW27262  10.625   8.310   5.891
41752SOL    HW127263  10.555   8.268   5.942
41752SOL    HW227264  10.592   8.307   5.800
41753SOL     OW27265  11.042   9.200   6.713
41753SOL    HW127266   0.016   9.218   6.653
41753SOL    HW227267  11.022   9.106   6.696
41754SOL     OW27268  10.567   9.183   6.691
41754SOL    HW127269  10.649   9.200   6.640
41754SOL    HW227270  10.576   9.088   6.712
41755SOL     OW27271   9.421   8.707   6.613
41755SOL    HW127272   9.386   8.719   6.704
41755SOL    HW227273   9.346   8.662   6.570
41756SOL     OW27274  10.011   9.093   7.324
41756SOL    HW127275   9.980   9.183   7.312
41756SOL    HW227276  10.103   9.097   7.292
41757SOL     OW27277  11.045   7.578   6.128
41757SOL    HW127278  11.096   7.580   6.044
41757SOL    HW227279  11.041   7.483   6.149
41758SOL     OW27280  10.690   9.035   6.085
41758SOL    HW127281  10.747   9.058   6.009
41758SOL    HW227282  10.649   9.120   6.109
41759SOL     OW27283   9.464   9.240   7.411
41759SOL    HW127284   9.415   9.175   7.467
41759SOL    HW227285   9.512   9.289   7.480
41760SOL     OW27286  10.563   8.380   6.259
41760SOL    HW127287  10.638   8.320   6.275
41760SOL    HW227288  10.605   8.449   6.205
41761SOL     OW27289  10.140   8.713   7.037
41761SOL    HW127290  10.108   8.744   7.123
41761SOL    HW227291  10.074   8.756   6.981
41762SOL     OW27292   9.983   9.068   5.749
41762SOL    HW127293   9.997   9.083   5.654
41762SOL    HW227294   9.927   8.988   5.745
41763SOL     OW27295   9.561   7.760   6.287
41763SOL    HW127296   9.477   7.808   6.271
41763SOL    HW227297   9.572   7.769   6.382
41764SOL     OW27298  10.518   9.079   5.606
41764SOL    HW127299  10.513   8.985   5.633
41764SOL    HW227300  10.451   9.083   5.536
41765SOL     OW27301  10.134   8.458   6.945
41765SOL    HW127302  10.212   8.437   6.891
41765SOL    HW227303  10.157   8.542   6.989
41766SOL     OW27304  10.232   8.358   5.852
41766SOL    HW127305  10.310   8.392   5.804
41766SOL    HW227306  10.266   8.280   5.898
41767SOL     OW27307  10.820   9.097   5.617
41767SOL    HW127308  10.724   9.084   5.626
41767SOL    HW227309  10.837   9.062   5.529
41768SOL     OW27310   9.665   8.716   7.056
41768SOL    HW127311   9.634   8.802   7.022
41768SOL    HW227312   9.583   8.663   7.056
41769SOL     OW27313  10.879   8.744   6.869
41769SOL    HW127314  10.953   8.724   6.927
41769SOL    HW227315  10.831   8.813   6.919
41770SOL     OW27316  10.367   8.560   6.325
41770SOL    HW127317  10.293   8.503   6.353
41770SOL    HW227318  10.434   8.493   6.301
41771SOL     OW27319  10.329   7.676   6.576
41771SOL    HW127320  10.320   7.633   6.488
41771SOL    HW227321  10.345   7.598   6.633
41772SOL     OW27322   9.934   8.946   6.094
41772SOL    HW127323   9.984   8.904   6.021
41772SOL    HW227324   9.852   8.970   6.050
41773SOL     OW27325   9.567   8.822   5.860
41773SOL    HW127326   9.471   8.809   5.851
41773SOL    HW227327   9.576   8.848   5.953
41774SOL     OW27328   9.439   8.450   7.288
41774SOL    HW127329   9.367   8.438   7.353
41774SOL    HW227330   9.518   8.420   7.338
41775SOL     OW27331   9.979   7.635   7.072
41775SOL    HW127332  10.065   7.601   7.042
41775SOL    HW227333  10.002   7.667   7.162
41776SOL     OW27334   9.404   7.802   5.626
41776SOL    HW127335   9.314   7.787   5.595
41776SOL    HW227336   9.435   7.870   5.564
41777SOL     OW27337  10.718   8.300   6.976
41777SOL    HW127338  10.675   8.363   6.915
41777SOL    HW227339  10.811   8.320   6.962
41778SOL     OW27340   9.349   7.619   5.886
41778SOL    HW127341   9.348   7.704   5.840
41778SOL    HW227342   9.432   7.581   5.852
41779SOL     OW27343  10.518   8.810   5.687
41779SOL    HW127344  10.437   8.758   5.695
41779SOL    HW227345  10.542   8.822   5.781
41780SOL     OW27346   9.929   8.275   7.025
41780SOL    HW127347   9.988   8.350   7.010
41780SOL    HW227348   9.994   8.202   7.033
41781SOL     OW27349  10.797   9.220   6.554
41781SOL    HW127350  10.830   9.244   6.467
41781SOL    HW227351  10.878   9.218   6.606
41782SOL     OW27352  10.047   7.975   7.291
41782SOL    HW127353  10.078   8.037   7.359
41782SOL    HW227354  10.059   7.887   7.329
41783SOL     OW27355  10.772   8.643   7.210
41783SOL    HW127356  10.767   8.644   7.309
41783SOL    HW227357  10.869   8.646   7.196
41784SOL     OW27358   9.682   9.177   7.145
41784SOL    HW127359   9.596   9.221   7.134
41784SOL    HW227360   9.654   9.095   7.190
41785SOL     OW27361  11.013   8.314   6.825
41785SOL    HW127362  11.008   8.241   6.761
41785SOL    HW227363  10.980   8.391   6.774
41786SOL     OW27364  10.510   7.769   6.055
41786SOL    HW127365  10.576   7.699   6.040
41786SOL    HW227366  10.550   7.818   6.130
41787SOL     OW27367   9.904   8.189   6.240
41787SOL    HW127368   9.938   8.278   6.226
41787SOL    HW227369   9.837   8.180   6.170
41788SOL     OW27370  11.061   7.825   7.221
41788SOL    HW127371  11.022   7.872   7.145
41788SOL    HW227372  10.987   7.772   7.256
41789SOL     OW27373  11.048   8.375   7.083
41789SOL    HW127374  11.042   8.472   7.078
41789SOL    HW227375  11.040   8.348   6.989
41790SOL     OW27376  10.164   8.808   5.615
41790SOL    HW127377  10.139   8.822   5.708
41790SOL    HW227378  10.190   8.897   5.585
41791SOL     OW27379   9.955   9.249   6.506
41791SOL    HW127380   9.929   9.342   6.495
41791SOL    HW227381  10.052   9.252   6.504
41792SOL     OW27382  10.195   8.375   6.423
41792SOL    HW127383  10.248   8.314   6.478
41792SOL    HW227384  10.159   8.439   6.487
41793SOL     OW27385  10.425   8.458   5.683
41793SOL    HW127386  10.390   8.496   5.601
41793SOL    HW227387  10.497   8.399   5.650
41794SOL     OW27388   0.070   9.003   6.433
41794SOL    HW127389   0.007   8.991   6.361
41794SOL    HW227390   0.066   8.917   6.477
41795SOL     OW27391   9.553   8.760   7.452
41795SOL    HW127392   9.475   8.706   7.434
41795SOL    HW227393   9.544   8.775   7.548
41796SOL     OW27394   9.394   8.704   6.244
41796SOL    HW127395   9.378   8.653   6.324
41796SOL    HW227396   9.471   8.660   6.206
41797SOL     OW27397   9.968   8.858   7.193
41797SOL    HW127398   9.898   8.803   7.233
41797SOL    HW227399   9.964   8.939   7.248
41798SOL     OW27400   0.009   7.626   6.780
41798SOL    HW127401   0.019   7.546   6.832
41798SOL    HW227402  11.088   7.591   6.693
41799SOL     OW27403   9.756   7.878   6.129
41799SOL    HW127404   9.791   7.809   6.071
41799SOL    HW227405   9.698   7.829   6.190
41800SOL     OW27406  10.975   8.946   6.685
41800SOL    HW127407  10.906   8.914   6.625
41800SOL    HW227408  10.991   8.867   6.739
41801SOL     OW27409   9.638   7.983   6.872
41801SOL    HW127410   9.700   7.938   6.932
41801SOL    HW227411   9.663   7.949   6.784
41802SOL     OW27412  10.139   9.040   6.266
41802SOL    HW127413  10.141   9.099   6.189
41802SOL    HW227414  10.050   9.003   6.260
41803SOL     OW27415  10.719   7.694   6.672
41803SOL    HW127416  10.750   7.615   6.717
41803SOL    HW227417  10.681   7.745   6.747
41804SOL     OW27418  10.334   7.444   6.748
41804SOL    HW127419  10.282   7.365   6.726
41804SOL    HW227420  10.426   7.412   6.733
41805SOL     OW27421  10.097   8.790   5.902
41805SOL    HW127422  10.058   8.701   5.900
41805SOL    HW227423  10.178   8.776   5.952
41806SOL     OW27424   9.908   9.006   6.853
41806SOL    HW127425   9.901   9.090   6.902
41806SOL    HW227426  10.004   9.006   6.837
41807SOL     OW27427  10.656   7.495   5.797
41807SOL    HW127428  10.675   7.447   5.716
41807SOL    HW227429  10.571   7.454   5.823
41808SOL     OW27430  10.628   7.920   6.262
41808SOL    HW127431  10.564   7.993   6.256
41808SOL    HW227432  10.605   7.879   6.348
41809SOL     OW27433  10.923   7.665   6.454
41809SOL    HW127434  10.859   7.647   6.523
41809SOL    HW227435  10.872   7.716   6.392
41810SOL     OW27436   9.360   8.521   5.876
41810SOL    HW127437   9.454   8.504   5.858
41810SOL    HW227438   9.331   8.431   5.903
41811SOL     OW27439  10.199   9.096   5.937
41811SOL    HW127440  10.124   9.077   5.877
41811SOL    HW227441  10.170   9.177   5.983
41812SOL     OW27442   9.541   8.087   7.580
41812SOL    HW127443   9.448   8.074   7.606
41812SOL    HW227444   9.544   8.064   7.486
41813SOL     OW27445   9.516   7.752   8.448
41813SOL    HW127446   9.544   7.720   8.536
41813SOL    HW227447   9.432   7.704   8.436
41814SOL     OW27448   9.314   7.851   8.074
41814SOL    HW127449   9.232   7.873   8.124
41814SOL    HW227450   9.290   7.767   8.033
41815SOL     OW27451   9.882   8.741   8.644
41815SOL    HW127452   9.797   8.752   8.599
41815SOL    HW227453   9.900   8.830   8.677
41816SOL     OW27454  10.870   8.983   8.167
41816SOL    HW127455  10.838   8.941   8.249
41816SOL    HW227456  10.803   8.961   8.101
41817SOL     OW27457  10.461   8.134   8.145
41817SOL    HW127458  10.478   8.228   8.125
41817SOL    HW227459  10.433   8.141   8.238
41818SOL     OW27460  11.091   8.057   7.685
41818SOL    HW127461  11.060   8.051   7.592
41818SOL    HW227462  11.040   7.987   7.727
41819SOL     OW27463  10.040   8.597   8.468
41819SOL    HW127464   9.985   8.646   8.533
41819SOL    HW227465  10.089   8.671   8.427
41820SOL     OW27466  10.186   8.200   9.252
41820SOL    HW127467  10.159   8.262   9.320
41820SOL    HW227468  10.197   8.257   9.173
41821SOL     OW27469  10.003   8.479   8.105
41821SOL    HW127470  10.066   8.445   8.171
41821SOL    HW227471   9.940   8.529   8.159
41822SOL     OW27472  10.033   8.608   9.253
41822SOL    HW127473  10.075   8.691   9.283
41822SOL    HW227474   9.950   8.639   9.216
41823SOL     OW27475   9.636   8.867   8.507
41823SOL    HW127476   9.559   8.847   8.454
41823SOL    HW227477   9.689   8.926   8.449
41824SOL     OW27478  10.760   8.953   8.837
41824SOL    HW127479  10.794   9.042   8.849
41824SOL    HW227480  10.683   8.953   8.897
41825SOL     OW27481   9.750   7.851   8.965
41825SOL    HW127482   9.829   7.796   8.959
41825SOL    HW227483   9.677   7.789   8.951
41826SOL     OW27484   9.533   9.158   7.922
41826SOL    HW127485   9.560   9.238   7.971
41826SOL    HW227486   9.593   9.164   7.845
41827SOL     OW27487  10.440   8.791   9.129
41827SOL    HW127488  10.483   8.787   9.216
41827SOL    HW227489  10.391   8.706   9.127
41828SOL     OW27490   9.570   8.878   7.983
41828SOL    HW127491   9.563   8.975   7.980
41828SOL    HW227492   9.499   8.853   8.043
41829SOL     OW27493   9.895   9.258   8.849
41829SOL    HW127494   9.834   9.223   8.916
41829SOL    HW227495   9.927   9.341   8.889
41830SOL     OW27496   9.873   8.452   7.568
41830SOL    HW127497   9.927   8.502   7.504
41830SOL    HW227498   9.917   8.475   7.652
41831SOL     OW27499  10.916   7.545   8.930
41831SOL    HW127500  10.943   7.606   8.860
41831SOL    HW227501  10.921   7.599   9.010
41832SOL     OW27502   9.431   8.092   8.007
41832SOL    HW127503   9.396   8.003   8.023
41832SOL    HW227504   9.422   8.134   8.095
41833SOL     OW27505   9.360   9.050   7.564
41833SOL    HW127506   9.352   8.957   7.587
41833SOL    HW227507   9.330   9.094   7.645
41834SOL     OW27508  11.000   8.404   8.058
41834SOL    HW127509  11.060   8.351   8.114
41834SOL    HW227510  11.012   8.362   7.971
41835SOL     OW27511   9.435   8.197   9.027
41835SOL    HW127512   9.531   8.209   9.036
41835SOL    HW227513   9.403   8.276   9.074
41836SOL     OW27514   9.910   8.858   8.211
41836SOL    HW127515   9.872   8.768   8.222
41836SOL    HW227516   9.904   8.868   8.114
41837SOL     OW27517  10.596   8.680   8.881
41837SOL    HW127518  10.617   8.608   8.819
41837SOL    HW227519  10.665   8.670   8.951
41838SOL     OW27520  10.138   7.456   7.939
41838SOL    HW127521  10.172   7.547   7.933
41838SOL    HW227522  10.042   7.470   7.949
41839SOL     OW27523   9.494   8.402   8.679
41839SOL    HW127524   9.576   8.357   8.710
41839SOL    HW227525   9.427   8.333   8.688
41840SOL     OW27526  10.846   8.439   7.651
41840SOL    HW127527  10.760   8.394   7.663
41840SOL    HW227528  10.890   8.411   7.731
41841SOL     OW27529  10.492   9.260   9.051
41841SOL    HW127530  10.484   9.322   8.977
41841SOL    HW227531  10.510   9.176   9.007
41842SOL     OW27532   9.642   7.693   9.233
41842SOL    HW127533   9.702   7.769   9.234
41842SOL    HW227534   9.568   7.728   9.285
41843SOL     OW27535  10.755   8.872   8.396
41843SOL    HW127536  10.699   8.894   8.474
41843SOL    HW227537  10.733   8.778   8.381
41844SOL     OW27538  11.004   9.155   8.016
41844SOL    HW127539  10.960   9.107   7.945
41844SOL    HW227540  10.974   9.105   8.095
41845SOL     OW27541   9.896   8.162   7.699
41845SOL    HW127542   9.902   8.250   7.660
41845SOL    HW227543   9.826   8.173   7.766
41846SOL     OW27544  10.548   7.815   8.360
41846SOL    HW127545  10.468   7.764   8.379
41846SOL    HW227546  10.613   7.772   8.420
41847SOL     OW27547  10.871   9.082   7.743
41847SOL    HW127548  10.915   9.168   7.748
41847SOL    HW227549  10.860   9.072   7.646
41848SOL     OW27550  10.094   8.071   8.923
41848SOL    HW127551  10.083   8.028   9.011
41848SOL    HW227552  10.057   8.004   8.862
41849SOL     OW27553  10.700   7.920   9.121
41849SOL    HW127554  10.705   7.980   9.197
41849SOL    HW227555  10.757   7.846   9.148
41850SOL     OW27556  10.245   8.340   9.032
41850SOL    HW127557  10.290   8.260   8.996
41850SOL    HW227558  10.205   8.377   8.951
41851SOL     OW27559  10.317   7.832   8.689
41851SOL    HW127560  10.228   7.856   8.718
41851SOL    HW227561  10.302   7.793   8.602
41852SOL     OW27562  10.358   8.129   7.864
41852SOL    HW127563  10.371   8.135   7.961
41852SOL    HW227564  10.270   8.087   7.858
41853SOL     OW27565   9.413   8.239   8.229
41853SOL    HW127566   9.483   8.253   8.296
41853SOL    HW227567   9.346   8.303   8.253
41854SOL     OW27568   9.398   9.263   9.012
41854SOL    HW127569   9.424   9.248   9.106
41854SOL    HW227570   9.302   9.270   9.021
41855SOL     OW27571  10.203   7.810   7.663
41855SOL    HW127572  10.238   7.873   7.598
41855SOL    HW227573  10.251   7.731   7.637
41856SOL     OW27574  11.024   8.030   9.281
41856SOL    HW127575  10.991   8.105   9.227
41856SOL    HW227576  11.071   7.978   9.214
41857SOL     OW27577  10.675   8.622   8.027
41857SOL    HW127578  10.737   8.611   7.954
41857SOL    HW227579  10.607   8.677   7.987
41858SOL     OW27580   9.848   7.624   8.341
41858SOL    HW127581   9.853   7.655   8.433
41858SOL    HW227582   9.848   7.706   8.291
41859SOL     OW27583  10.331   8.920   7.948
41859SOL    HW127584  10.289   8.977   7.881
41859SOL    HW227585  10.291   8.951   8.030
41860SOL     OW27586   9.658   9.264   8.309
41860SOL    HW127587   9.714   9.185   8.319
41860SOL    HW227588   9.723   9.336   8.312
41861SOL     OW27589  11.084   8.481   8.331
41861SOL    HW127590  11.013   8.506   8.270
41861SOL    HW227591  11.041   8.482   8.418
41862SOL     OW27592  10.523   9.002   8.955
41862SOL    HW127593  10.507   8.936   9.025
41862SOL    HW227594  10.474   8.964   8.881
41863SOL     OW27595   9.612   8.400   7.688
41863SOL    HW127596   9.694   8.430   7.646
41863SOL    HW227597   9.590   8.322   7.633
41864SOL     OW27598  10.768   8.201   8.180
41864SOL    HW127599  10.754   8.144   8.257
41864SOL    HW227600  10.855   8.237   8.196
41865SOL     OW27601   9.780   8.710   9.169
41865SOL    HW127602   9.733   8.712   9.083
41865SOL    HW227603   9.705   8.712   9.230
41866SOL     OW27604  10.432   9.219   7.696
41866SOL    HW127605  10.362   9.168   7.739
41866SOL    HW227606  10.438   9.177   7.608
41867SOL     OW27607   9.477   7.737   8.945
41867SOL    HW127608   9.397   7.775   8.985
41867SOL    HW227609   9.485   7.654   8.994
41868SOL     OW27610   9.768   9.187   7.760
41868SOL    HW127611   9.818   9.232   7.831
41868SOL    HW227612   9.838   9.152   7.702
41869SOL     OW27613  10.709   7.558   7.902
41869SOL    HW127614  10.705   7.534   7.808
41869SOL    HW227615  10.806   7.557   7.918
41870SOL     OW27616   9.543   9.249   8.682
41870SOL    HW127617   9.604   9.197   8.736
41870SOL    HW227618   9.551   9.204   8.596
41871SOL     OW27619  10.284   9.145   8.328
41871SOL    HW127620  10.370   9.099   8.330
41871SOL    HW227621  10.236   9.095   8.259
41872SOL     OW27622   9.706   8.143   7.915
41872SOL    HW127623   9.730   8.051   7.939
41872SOL    HW227624   9.610   8.140   7.930
41873SOL     OW27625  10.840   7.677   9.183
41873SOL    HW127626  10.826   7.693   9.279
41873SOL    HW227627  10.783   7.600   9.169
41874SOL     OW27628   9.933   7.579   7.546
41874SOL    HW127629  10.011   7.529   7.573
41874SOL    HW227630   9.892   7.519   7.480
41875SOL     OW27631  10.070   7.693   9.186
41875SOL    HW127632  10.151   7.642   9.202
41875SOL    HW227633  10.024   7.692   9.271
41876SOL     OW27634  10.193   8.994   8.644
41876SOL    HW127635  10.187   8.965   8.551
41876SOL    HW227636  10.246   8.924   8.686
41877SOL     OW27637  10.624   8.047   8.884
41877SOL    HW127638  10.669   8.005   8.959
41877SOL    HW227639  10.670   8.133   8.874
41878SOL     OW27640  10.134   8.842   8.386
41878SOL    HW127641  10.222   8.840   8.343
41878SOL    HW227642  10.074   8.852   8.311
41879SOL     OW27643  10.228   7.963   8.359
41879SOL    HW127644  10.211   7.955   8.262
41879SOL    HW227645  10.264   7.875   8.378
41880SOL     OW27646   9.866   7.504   7.947
41880SOL    HW127647   9.786   7.511   8.002
41880SOL    HW227648   9.855   7.582   7.887
41881SOL     OW27649  10.756   8.619   7.471
41881SOL    HW127650  10.780   8.549   7.535
41881SOL    HW227651  10.675   8.655   7.509
41882SOL     OW27652   9.587   7.496   7.641
41882SOL    HW127653   9.646   7.569   7.616
41882SOL    HW227654   9.651   7.432   7.678
41883SOL     OW27655  10.238   7.709   7.941
41883SOL    HW127656  10.222   7.757   7.858
41883SOL    HW227657  10.336   7.715   7.947
41884SOL     OW27658  10.366   8.129   8.918
41884SOL    HW127659  10.310   8.050   8.921
41884SOL    HW227660  10.456   8.092   8.917
41885SOL     OW27661  10.535   9.040   8.238
41885SOL    HW127662  10.544   9.099   8.162
41885SOL    HW227663  10.622   9.046   8.280
41886SOL     OW27664   9.779   8.614   8.188
41886SOL    HW127665   9.738   8.538   8.230
41886SOL    HW227666   9.748   8.603   8.096
41887SOL     OW27667  10.575   9.267   8.049
41887SOL    HW127668  10.617   9.333   7.990
41887SOL    HW227669  10.545   9.323   8.122
41888SOL     OW27670  10.338   7.974   7.477
41888SOL    HW127671  10.295   8.057   7.448
41888SOL    HW227672  10.412   8.006   7.530
41889SOL     OW27673   9.357   8.014   8.847
41889SOL    HW127674   9.451   7.992   8.837
41889SOL    HW227675   9.361   8.090   8.908
41890SOL     OW27676   9.859   7.714   8.610
41890SOL    HW127677   9.914   7.646   8.651
41890SOL    HW227678   9.770   7.692   8.644
41891SOL     OW27679  10.179   7.921   8.105
41891SOL    HW127680  10.140   7.967   8.029
41891SOL    HW227681  10.204   7.835   8.066
41892SOL     OW27682  10.334   7.529   8.219
41892SOL    HW127683  10.316   7.510   8.126
41892SOL    HW227684  10.311   7.444   8.262
41893SOL     OW27685  10.740   8.608   8.335
41893SOL    HW127686  10.693   8.527   8.358
41893SOL    HW227687  10.719   8.616   8.240
41894SOL     OW27688  10.773   8.042   8.442
41894SOL    HW127689  10.715   7.964   8.448
41894SOL    HW227690  10.860   8.006   8.460
41895SOL     OW27691   0.030   8.310   7.824
41895SOL    HW127692   0.064   8.243   7.887
41895SOL    HW227693  11.097   8.250   7.756
41896SOL     OW27694   9.804   8.871   7.587
41896SOL    HW127695   9.722   8.861   7.638
41896SOL    HW227696   9.789   8.812   7.512
41897SOL     OW27697  10.702   8.043   7.520
41897SOL    HW127698  10.647   8.009   7.594
41897SOL    HW227699  10.792   8.028   7.554
41898SOL     OW27700   9.831   7.695   7.770
41898SOL    HW127701   9.871   7.658   7.689
41898SOL    HW227702   9.798   7.780   7.735
41899SOL     OW27703  11.032   8.686   9.036
41899SOL    HW127704   0.022   8.654   9.041
41899SOL    HW227705  11.042   8.780   9.050
41900SOL     OW27706  10.374   8.801   8.782
41900SOL    HW127707  10.294   8.769   8.827
41900SOL    HW227708  10.444   8.755   8.833
41901SOL     OW27709  10.930   9.066   9.088
41901SOL    HW127710  10.937   9.125   9.012
41901SOL    HW227711  11.021   9.035   9.099
41902SOL     OW27712  10.440   8.660   8.538
41902SOL    HW127713  10.384   8.697   8.608
41902SOL    HW227714  10.413   8.711   8.460
41903SOL     OW27715  10.936   8.552   8.549
41903SOL    HW127716  10.916   8.611   8.624
41903SOL    HW227717  10.872   8.584   8.483
41904SOL     OW27718  10.222   7.550   8.846
41904SOL    HW127719  10.249   7.524   8.756
41904SOL    HW227720  10.303   7.593   8.879
41905SOL     OW27721  10.306   8.561   9.185
41905SOL    HW127722  10.213   8.585   9.206
41905SOL    HW227723  10.293   8.482   9.129
41906SOL     OW27724  10.021   8.499   7.793
41906SOL    HW127725  10.020   8.488   7.889
41906SOL    HW227726  10.096   8.441   7.767
41907SOL     OW27727   9.722   8.255   8.716
41907SOL    HW127728   9.799   8.254   8.777
41907SOL    HW227729   9.689   8.164   8.722
41908SOL     OW27730  10.591   7.827   8.731
41908SOL    HW127731  10.616   7.912   8.774
41908SOL    HW227732  10.497   7.842   8.709
41909SOL     OW27733   9.384   9.014   8.788
41909SOL    HW127734   9.381   9.110   8.779
41909SOL    HW227735   9.480   8.994   8.779
41910SOL     OW27736   9.680   8.548   7.954
41910SOL    HW127737   9.677   8.618   7.888
41910SOL    HW227738   9.678   8.468   7.899
41911SOL     OW27739   9.845   7.984   8.293
41911SOL    HW127740   9.875   8.046   8.223
41911SOL    HW227741   9.917   7.988   8.356
41912SOL     OW27742  10.551   8.823   7.820
41912SOL    HW127743  10.606   8.889   7.866
41912SOL    HW227744  10.465   8.839   7.862
41913SOL     OW27745  10.608   8.923   8.618
41913SOL    HW127746  10.676   8.919   8.689
41913SOL    HW227747  10.544   8.856   8.646
41914SOL     OW27748  10.885   8.120   7.914
41914SOL    HW127749  10.831   8.136   7.993
41914SOL    HW227750  10.963   8.075   7.950
41915SOL     OW27751   9.647   8.960   8.753
41915SOL    HW127752   9.646   8.918   8.664
41915SOL    HW227753   9.742   8.980   8.762
41916SOL     OW27754   9.753   8.174   9.076
41916SOL    HW127755   9.807   8.225   9.014
41916SOL    HW227756   9.787   8.085   9.063
41917SOL     OW27757  10.923   8.207   9.115
41917SOL    HW127758  10.838   8.254   9.124
41917SOL    HW227759  10.968   8.266   9.051
41918SOL     OW27760  10.301   7.552   9.198
41918SOL    HW127761  10.356   7.630   9.183
41918SOL    HW227762  10.354   7.484   9.153
41919SOL     OW27763   9.808   7.456   9.203
41919SOL    HW127764   9.763   7.406   9.132
41919SOL    HW227765   9.753   7.536   9.206
41920SOL     OW27766   9.853   8.367   8.479
41920SOL    HW127767   9.918   8.440   8.482
41920SOL    HW227768   9.840   8.346   8.573
41921SOL     OW27769  10.686   8.304   8.477
41921SOL    HW127770  10.596   8.274   8.458
41921SOL    HW227771  10.734   8.219   8.480
41922SOL     OW27772  10.531   7.974   7.720
41922SOL    HW127773  10.539   7.896   7.777
41922SOL    HW227774  10.470   8.030   7.772
41923SOL     OW27775   9.601   7.655   8.691
41923SOL    HW127776   9.553   7.680   8.772
41923SOL    HW227777   9.581   7.560   8.686
41924SOL     OW27778   9.354   8.750   8.731
41924SOL    HW127779   9.371   8.700   8.812
41924SOL    HW227780   9.350   8.842   8.762
41925SOL     OW27781  10.046   8.099   8.507
41925SOL    HW127782  10.114   8.052   8.454
41925SOL    HW227783  10.019   8.174   8.452
41926SOL     OW27784   9.615   7.513   8.053
41926SOL    HW127785   9.590   7.605   8.075
41926SOL    HW227786   9.615   7.471   8.141
41927SOL     OW27787  10.933   7.834   7.801
41927SOL    HW127788  10.982   7.781   7.868
41927SOL    HW227789  10.885   7.894   7.859
41928SOL     OW27790  10.362   8.191   8.404
41928SOL    HW127791  10.354   8.205   8.501
41928SOL    HW227792  10.321   8.102   8.395
41929SOL     OW27793  10.294   9.016   9.164
41929SOL    HW127794  10.291   9.066   9.080
41929SOL    HW227795  10.325   8.928   9.136
41930SOL     OW27796   9.662   8.353   9.243
41930SOL    HW127797   9.742   8.385   9.288
41930SOL    HW227798   9.694   8.274   9.196
41931SOL     OW27799  10.809   7.728   7.585
41931SOL    HW127800  10.754   7.658   7.622
41931SOL    HW227801  10.856   7.762   7.664
41932SOL     OW27802  10.611   8.295   7.479
41932SOL    HW127803  10.644   8.203   7.491
41932SOL    HW227804  10.650   8.320   7.393
41933SOL     OW27805  10.381   8.811   8.296
41933SOL    HW127806  10.393   8.735   8.236
41933SOL    HW227807  10.448   8.875   8.266
41934SOL     OW27808   9.596   8.273   8.430
41934SOL    HW127809   9.693   8.283   8.438
41934SOL    HW227810   9.588   8.176   8.440
41935SOL     OW27811   9.630   7.995   8.446
41935SOL    HW127812   9.596   7.903   8.437
41935SOL    HW227813   9.701   7.995   8.379
41936SOL     OW27814  10.449   7.840   9.111
41936SOL    HW127815  10.414   7.883   9.191
41936SOL    HW227816  10.541   7.873   9.109
41937SOL     OW27817  10.471   7.641   8.926
41937SOL    HW127818  10.468   7.713   8.992
41937SOL    HW227819  10.512   7.687   8.851
41938SOL     OW27820   9.319   8.772   7.642
41938SOL    HW127821   9.227   8.787   7.608
41938SOL    HW227822   9.314   8.679   7.673
41939SOL     OW27823   9.410   9.229   8.398
41939SOL    HW127824   9.383   9.151   8.344
41939SOL    HW227825   9.500   9.246   8.362
41940SOL     OW27826   9.795   9.038   8.378
41940SOL    HW127827   9.862   9.108   8.396
41940SOL    HW227828   9.846   8.979   8.320
41941SOL     OW27829  10.299   8.219   8.667
41941SOL    HW127830  10.341   8.190   8.751
41941SOL    HW227831  10.207   8.192   8.682
41942SOL     OW27832   9.335   7.977   8.554
41942SOL    HW127833   9.413   7.954   8.502
41942SOL    HW227834   9.372   7.990   8.642
41943SOL     OW27835   9.530   7.959   9.157
41943SOL    HW127836   9.585   7.918   9.089
41943SOL    HW227837   9.481   8.027   9.108
41944SOL     OW27838  10.712   8.374   9.106
41944SOL    HW127839  10.718   8.471   9.111
41944SOL    HW227840  10.682   8.360   9.015
41945SOL     OW27841  10.113   8.020   7.828
41945SOL    HW127842  10.125   7.950   7.761
41945SOL    HW227843  10.038   8.070   7.791
41946SOL     OW27844   9.564   8.990   9.168
41946SOL    HW127845   9.553   9.057   9.237
41946SOL    HW227846   9.571   8.908   9.220
41947SOL     OW27847  10.010   7.916   8.716
41947SOL    HW127848   9.952   7.848   8.676
41947SOL    HW227849  10.010   7.985   8.647
41948SOL     OW27850  10.242   9.147   8.927
41948SOL    HW127851  10.222   9.122   8.836
41948SOL    HW227852  10.232   9.244   8.925
41949SOL     OW27853   9.749   7.921   7.643
41949SOL    HW127854   9.816   7.992   7.647
41949SOL    HW227855   9.667   7.974   7.634
41950SOL     OW27856   9.427   8.566   8.918
41950SOL    HW127857   9.432   8.516   9.003
41950SOL    HW227858   9.446   8.497   8.852
41951SOL     OW27859  10.616   8.498   8.663
41951SOL    HW127860  10.640   8.436   8.591
41951SOL    HW227861  10.556   8.560   8.618
41952SOL     OW27862  10.622   8.318   7.749
41952SOL    HW127863  10.569   8.258   7.801
41952SOL    HW227864  10.590   8.305   7.658
41953SOL     OW27865  11.038   9.197   8.564
41953SOL    HW127866   0.015   9.220   8.509
41953SOL    HW227867  11.025   9.102   8.545
41954SOL     OW27868  10.553   9.179   8.534
41954SOL    HW127869  10.636   9.201   8.488
41954SOL    HW227870  10.567   9.086   8.560
41955SOL     OW27871   9.413   8.683   8.482
41955SOL    HW127872   9.384   8.715   8.571
41955SOL    HW227873   9.329   8.683   8.433
41956SOL     OW27874  10.009   9.092   9.188
41956SOL    HW127875   9.976   9.183   9.176
41956SOL    HW227876  10.102   9.101   9.165
41957SOL     OW27877  10.975   7.522   7.923
41957SOL    HW127878  11.053   7.562   7.881
41957SOL    HW227879  11.014   7.468   7.994
41958SOL     OW27880  10.684   9.031   7.949
41958SOL    HW127881  10.741   9.049   7.872
41958SOL    HW227882  10.640   9.117   7.966
41959SOL     OW27883   9.466   9.238   9.277
41959SOL    HW127884   9.421   9.172   9.335
41959SOL    HW227885   9.513   9.289   9.345
41960SOL     OW27886  10.564   8.390   8.130
41960SOL    HW127887  10.637   8.327   8.147
41960SOL    HW227888  10.605   8.454   8.070
41961SOL     OW27889  10.112   8.703   8.877
41961SOL    HW127890  10.085   8.757   8.955
41961SOL    HW227891  10.036   8.717   8.818
41962SOL     OW27892   9.982   9.074   7.606
41962SOL    HW127893   9.998   9.081   7.511
41962SOL    HW227894   9.927   8.992   7.608
41963SOL     OW27895   9.561   7.761   8.151
41963SOL    HW127896   9.475   7.804   8.133
41963SOL    HW227897   9.571   7.773   8.246
41964SOL     OW27898  10.503   9.084   7.474
41964SOL    HW127899  10.509   8.990   7.497
41964SOL    HW227900  10.439   9.085   7.401
41965SOL     OW27901  10.141   8.451   8.814
41965SOL    HW127902  10.198   8.454   8.736
41965SOL    HW227903  10.140   8.545   8.844
41966SOL     OW27904  10.229   8.348   7.727
41966SOL    HW127905  10.299   8.386   7.671
41966SOL    HW227906  10.273   8.274   7.771
41967SOL     OW27907  10.846   9.066   7.474
41967SOL    HW127908  10.750   9.072   7.473
41967SOL    HW227909  10.870   9.076   7.380
41968SOL     OW27910   9.647   8.725   8.938
41968SOL    HW127911   9.636   8.796   8.874
41968SOL    HW227912   9.567   8.670   8.927
41969SOL     OW27913  10.880   8.739   8.735
41969SOL    HW127914  10.954   8.728   8.796
41969SOL    HW227915  10.830   8.813   8.777
41970SOL     OW27916  10.360   8.561   8.179
41970SOL    HW127917  10.291   8.504   8.216
41970SOL    HW227918  10.433   8.497   8.164
41971SOL     OW27919  10.330   7.670   8.441
41971SOL    HW127920  10.322   7.626   8.353
41971SOL    HW227921  10.345   7.593   8.499
41972SOL     OW27922   9.932   8.932   7.944
41972SOL    HW127923   9.983   8.898   7.868
41972SOL    HW227924   9.854   8.970   7.902
41973SOL     OW27925   9.562   8.833   7.722
41973SOL    HW127926   9.467   8.814   7.710
41973SOL    HW227927   9.567   8.850   7.818
41974SOL     OW27928   9.436   8.449   9.154
41974SOL    HW127929   9.370   8.445   9.226
41974SOL    HW227930   9.520   8.421   9.199
41975SOL     OW27931   9.972   7.625   8.934
41975SOL    HW127932  10.061   7.599   8.902
41975SOL    HW227933   9.994   7.660   9.023
41976SOL     OW27934   9.416   7.774   7.463
41976SOL    HW127935   9.321   7.777   7.452
41976SOL    HW227936   9.443   7.857   7.420
41977SOL     OW27937  10.715   8.302   8.837
41977SOL    HW127938  10.674   8.363   8.773
41977SOL    HW227939  10.809   8.313   8.818
41978SOL     OW27940   9.356   7.615   7.751
41978SOL    HW127941   9.352   7.703   7.712
41978SOL    HW227942   9.439   7.581   7.713
41979SOL     OW27943  10.522   8.806   7.552
41979SOL    HW127944  10.437   8.761   7.551
41979SOL    HW227945  10.540   8.812   7.648
41980SOL     OW27946   9.928   8.271   8.884
41980SOL    HW127947   9.987   8.347   8.873
41980SOL    HW227948   9.994   8.200   8.896
41981SOL     OW27949  10.791   9.241   8.411
41981SOL    HW127950  10.830   9.285   8.334
41981SOL    HW227951  10.871   9.220   8.462
41982SOL     OW27952  10.047   7.978   9.169
41982SOL    HW127953  10.089   8.052   9.217
41982SOL    HW227954  10.088   7.899   9.206
41983SOL     OW27955  10.774   8.644   9.075
41983SOL    HW127956  10.763   8.649   9.172
41983SOL    HW227957  10.870   8.658   9.066
41984SOL     OW27958   9.672   9.179   9.003
41984SOL    HW127959   9.583   9.216   8.998
41984SOL    HW227960   9.653   9.094   9.048
41985SOL     OW27961  10.995   8.316   8.675
41985SOL    HW127962  11.004   8.241   8.613
41985SOL    HW227963  10.961   8.388   8.618
41986SOL     OW27964  10.510   7.765   7.917
41986SOL    HW127965  10.574   7.694   7.902
41986SOL    HW227966  10.554   7.813   7.990
41987SOL     OW27967   9.903   8.190   8.111
41987SOL    HW127968   9.941   8.276   8.090
41987SOL    HW227969   9.834   8.179   8.043
41988SOL     OW27970  11.055   7.824   9.082
41988SOL    HW127971  11.020   7.876   9.009
41988SOL    HW227972  10.978   7.777   9.118
41989SOL     OW27973  11.034   8.369   8.933
41989SOL    HW127974  11.038   8.466   8.929
41989SOL    HW227975  11.027   8.344   8.838
41990SOL     OW27976  10.164   8.816   7.477
41990SOL    HW127977  10.154   8.828   7.572
41990SOL    HW227978  10.194   8.902   7.445
41991SOL     OW27979   9.965   9.241   8.374
41991SOL    HW127980   9.956   9.336   8.352
41991SOL    HW227981  10.060   9.228   8.378
41992SOL     OW27982  10.180   8.386   8.299
41992SOL    HW127983  10.240   8.319   8.336
41992SOL    HW227984  10.163   8.444   8.375
41993SOL     OW27985  10.405   8.446   7.548
41993SOL    HW127986  10.376   8.492   7.468
41993SOL    HW227987  10.483   8.397   7.516
41994SOL     OW27988   0.064   9.000   8.292
41994SOL    HW127989  11.080   8.989   8.250
41994SOL    HW227990   0.071   8.918   8.345
41995SOL     OW27991   9.551   8.766   9.317
41995SOL    HW127992   9.475   8.708   9.299
41995SOL    HW227993   9.541   8.780   9.413
41996SOL     OW27994   9.395   8.706   8.115
41996SOL    HW127995   9.348   8.632   8.157
41996SOL    HW227996   9.470   8.663   8.073
41997SOL     OW27997   9.990   8.850   9.070
41997SOL    HW127998   9.913   8.800   9.102
41997SOL    HW227999   9.984   8.932   9.122
41998SOL     OW28000   0.011   7.616   8.661
41998SOL    HW128001   0.010   7.526   8.695
41998SOL    HW228002   0.005   7.601   8.566
41999SOL     OW28003   9.752   7.886   7.983
41999SOL    HW128004   9.792   7.817   7.928
41999SOL    HW228005   9.699   7.836   8.048
42000SOL     OW28006  10.984   8.936   8.536
42000SOL    HW128007  10.908   8.896   8.491
42000SOL    HW228008  11.009   8.868   8.600
42001SOL     OW28009   9.637   7.985   8.734
42001SOL    HW128010   9.700   7.939   8.792
42001SOL    HW228011   9.661   7.952   8.646
42002SOL     OW28012  10.138   9.038   8.125
42002SOL    HW128013  10.126   9.085   8.041
42002SOL    HW228014  10.051   8.996   8.137
42003SOL     OW28015  10.715   7.701   8.536
42003SOL    HW128016  10.765   7.626   8.569
42003SOL    HW228017  10.680   7.741   8.619
42004SOL     OW28018  10.327   7.443   8.602
42004SOL    HW128019  10.278   7.372   8.557
42004SOL    HW228020  10.419   7.408   8.598
42005SOL     OW28021  10.105   8.792   7.769
42005SOL    HW128022  10.063   8.705   7.761
42005SOL    HW228023  10.178   8.773   7.830
42006SOL     OW28024   9.912   9.011   8.726
42006SOL    HW128025   9.911   9.099   8.768
42006SOL    HW228026  10.004   9.008   8.696
42007SOL     OW28027  10.652   7.495   7.650
42007SOL    HW128028  10.666   7.439   7.572
42007SOL    HW228029  10.565   7.460   7.681
42008SOL     OW28030  10.622   7.914   8.120
42008SOL    HW128031  10.563   7.992   8.117
42008SOL    HW228032  10.599   7.876   8.207
42009SOL     OW28033  10.927   7.606   8.322
42009SOL    HW128034  10.849   7.657   8.346
42009SOL    HW228035  10.971   7.665   8.258
42010SOL     OW28036   9.347   8.513   7.753
42010SOL    HW128037   9.437   8.496   7.721
42010SOL    HW228038   9.320   8.423   7.777
42011SOL     OW28039  10.196   9.095   7.784
42011SOL    HW128040  10.121   9.078   7.724
42011SOL    HW228041  10.167   9.174   7.834
42012SOL     OW28042   9.537   8.078   9.448
42012SOL    HW128043   9.444   8.066   9.469
42012SOL    HW228044   9.542   8.065   9.352
42013SOL     OW28045   9.544   7.710  10.277
42013SOL    HW128046   9.561   7.695  10.373
42013SOL    HW228047   9.455   7.669  10.268
42014SOL     OW28048   9.875   8.743  10.458
42014SOL    HW128049   9.780   8.731  10.443
42014SOL    HW228050   9.878   8.829  10.503
42015SOL     OW28051  10.900   8.961  10.015
42015SOL    HW128052  10.860   8.931  10.098
42015SOL    HW228053  10.828   8.948   9.950
42016SOL     OW28054  10.441   8.137  10.002
42016SOL    HW128055  10.475   8.226   9.982
42016SOL    HW228056  10.404   8.153  10.091
42017SOL     OW28057  11.076   8.044   9.540
42017SOL    HW128058  11.054   8.037   9.445
42017SOL    HW228059  11.031   7.965   9.576
42018SOL     OW28060  10.059   8.593  10.334
42018SOL    HW128061   9.990   8.642  10.385
42018SOL    HW228062  10.097   8.668  10.286
42019SOL     OW28063  10.156   8.209   0.023
42019SOL    HW128064  10.163   8.273   0.095
42019SOL    HW228065  10.185   8.260  11.046
42020SOL     OW28066  10.005   8.490   9.964
42020SOL    HW128067  10.062   8.463  10.038
42020SOL    HW228068   9.931   8.534  10.009
42021SOL     OW28069   9.623   8.882  10.388
42021SOL    HW128070   9.554   8.837  10.336
42021SOL    HW228071   9.677   8.927  10.319
42022SOL     OW28072  10.773   8.948  10.686
42022SOL    HW128073  10.800   9.040  10.676
42022SOL    HW228074  10.692   8.957  10.738
42023SOL     OW28075   9.765   7.832  10.778
42023SOL    HW128076   9.837   7.766  10.783
42023SOL    HW228077   9.688   7.784  10.810
42024SOL     OW28078   9.535   9.169   9.783
42024SOL    HW128079   9.569   9.244   9.836
42024SOL    HW228080   9.600   9.166   9.710
42025SOL     OW28081   9.556   8.877   9.843
42025SOL    HW128082   9.558   8.974   9.848
42025SOL    HW228083   9.488   8.853   9.907
42026SOL     OW28084   9.577   8.520  10.184
42026SOL    HW128085   9.589   8.442  10.240
42026SOL    HW228086   9.529   8.580  10.244
42027SOL     OW28087   9.912   9.242  10.737
42027SOL    HW128088   9.837   9.223  10.796
42027SOL    HW228089   9.930   9.337  10.754
42028SOL     OW28090   9.881   8.443   9.427
42028SOL    HW128091   9.936   8.491   9.363
42028SOL    HW228092   9.918   8.474   9.512
42029SOL     OW28093  10.913   7.587  10.814
42029SOL    HW128094  10.954   7.608  10.730
42029SOL    HW228095  10.969   7.635  10.876
42030SOL     OW28096   9.430   8.112   9.876
42030SOL    HW128097   9.397   8.027   9.905
42030SOL    HW228098   9.428   8.165   9.959
42031SOL     OW28099   9.365   9.042   9.436
42031SOL    HW128100   9.353   8.948   9.459
42031SOL    HW228101   9.337   9.086   9.517
42032SOL     OW28102  10.991   8.419   9.908
42032SOL    HW128103  11.059   8.360   9.941
42032SOL    HW228104  11.027   8.445   9.822
42033SOL     OW28105   9.436   8.180  10.909
42033SOL    HW128106   9.528   8.196  10.936
42033SOL    HW228107   9.398   8.269  10.916
42034SOL     OW28108   9.900   8.864  10.070
42034SOL    HW128109   9.866   8.772  10.074
42034SOL    HW228110   9.891   8.882   9.975
42035SOL     OW28111  10.606   8.695  10.739
42035SOL    HW128112  10.621   8.633  10.664
42035SOL    HW228113  10.677   8.671  10.799
42036SOL     OW28114  10.139   7.453   9.805
42036SOL    HW128115  10.172   7.545   9.806
42036SOL    HW228116  10.043   7.465   9.815
42037SOL     OW28117   9.498   8.397  10.617
42037SOL    HW128118   9.584   8.355  10.596
42037SOL    HW228119   9.435   8.348  10.562
42038SOL     OW28120  10.820   8.462   9.549
42038SOL    HW128121  10.751   8.401   9.583
42038SOL    HW228122  10.900   8.422   9.583
42039SOL     OW28123  10.518   9.234  10.903
42039SOL    HW128124  10.516   9.305  10.838
42039SOL    HW228125  10.520   9.154  10.848
42040SOL     OW28126   9.654   7.688   0.019
42040SOL    HW128127   9.719   7.754   0.044
42040SOL    HW228128   9.573   7.742   0.011
42041SOL     OW28129  10.766   8.871  10.255
42041SOL    HW128130  10.705   8.884  10.331
42041SOL    HW228131  10.752   8.777  10.233
42042SOL     OW28132  10.990   9.171   9.872
42042SOL    HW128133  10.961   9.113   9.801
42042SOL    HW228134  10.978   9.112   9.950
42043SOL     OW28135   9.902   8.163   9.574
42043SOL    HW128136   9.908   8.246   9.525
42043SOL    HW228137   9.832   8.182   9.638
42044SOL     OW28138  10.593   7.788  10.220
42044SOL    HW128139  10.503   7.751  10.229
42044SOL    HW228140  10.639   7.744  10.294
42045SOL     OW28141  10.868   9.078   9.603
42045SOL    HW128142  10.913   9.162   9.612
42045SOL    HW228143  10.852   9.074   9.506
42046SOL     OW28144  10.113   8.060  10.774
42046SOL    HW128145  10.086   8.026  10.861
42046SOL    HW228146  10.066   8.001  10.712
42047SOL     OW28147  10.250   8.327  10.898
42047SOL    HW128148  10.303   8.255  10.856
42047SOL    HW228149  10.205   8.367  10.821
42048SOL     OW28150  10.328   7.848  10.574
42048SOL    HW128151  10.238   7.860  10.607
42048SOL    HW228152  10.313   7.810  10.486
42049SOL     OW28153  10.334   8.136   9.725
42049SOL    HW128154  10.353   8.149   9.819
42049SOL    HW228155  10.252   8.084   9.728
42050SOL     OW28156   9.417   8.261  10.099
42050SOL    HW128157   9.492   8.272  10.160
42050SOL    HW228158   9.364   8.340  10.119
42051SOL     OW28159   9.425   9.297  10.869
42051SOL    HW128160   9.423   9.241  10.948
42051SOL    HW228161   9.336   9.287  10.834
42052SOL     OW28162  10.206   7.842   9.520
42052SOL    HW128163  10.246   7.900   9.452
42052SOL    HW228164  10.247   7.758   9.496
42053SOL     OW28165  10.681   8.605   9.883
42053SOL    HW128166  10.740   8.593   9.807
42053SOL    HW228167  10.618   8.669   9.847
42054SOL     OW28168   9.860   7.639  10.201
42054SOL    HW128169   9.865   7.651  10.298
42054SOL    HW228170   9.856   7.730  10.170
42055SOL     OW28171  10.330   8.908   9.803
42055SOL    HW128172  10.298   8.972   9.737
42055SOL    HW228173  10.303   8.951   9.885
42056SOL     OW28174   9.655   9.253  10.167
42056SOL    HW128175   9.706   9.171  10.183
42056SOL    HW228176   9.723   9.322  10.179
42057SOL     OW28177  11.098   8.482  10.170
42057SOL    HW128178  11.041   8.514  10.098
42057SOL    HW228179  11.041   8.490  10.249
42058SOL     OW28180  10.530   8.995  10.791
42058SOL    HW128181  10.544   8.914  10.840
42058SOL    HW228182  10.455   8.970  10.735
42059SOL     OW28183   9.611   8.400   9.557
42059SOL    HW128184   9.689   8.430   9.507
42059SOL    HW228185   9.591   8.316   9.512
42060SOL     OW28186  10.767   8.211  10.040
42060SOL    HW128187  10.763   8.152  10.117
42060SOL    HW228188  10.858   8.243  10.041
42061SOL     OW28189   9.788   8.727  11.041
42061SOL    HW128190   9.758   8.737  10.948
42061SOL    HW228191   9.730   8.655  11.071
42062SOL     OW28192  10.432   9.213   9.560
42062SOL    HW128193  10.348   9.177   9.594
42062SOL    HW228194  10.439   9.174   9.471
42063SOL     OW28195   9.490   7.733  10.796
42063SOL    HW128196   9.422   7.796  10.824
42063SOL    HW228197   9.472   7.656  10.852
42064SOL     OW28198   9.769   9.173   9.635
42064SOL    HW128199   9.815   9.230   9.700
42064SOL    HW228200   9.840   9.149   9.574
42065SOL     OW28201  10.725   7.564   9.764
42065SOL    HW128202  10.711   7.530   9.673
42065SOL    HW228203  10.821   7.562   9.774
42066SOL     OW28204   9.547   9.242  10.550
42066SOL    HW128205   9.615   9.186  10.590
42066SOL    HW228206   9.538   9.203  10.462
42067SOL     OW28207  10.268   9.161  10.201
42067SOL    HW128208  10.350   9.110  10.211
42067SOL    HW228209  10.222   9.110  10.132
42068SOL     OW28210   9.692   8.139   9.759
42068SOL    HW128211   9.707   8.045   9.778
42068SOL    HW228212   9.598   8.148   9.782
42069SOL     OW28213   9.923   7.573   9.418
42069SOL    HW128214  10.011   7.536   9.431
42069SOL    HW228215   9.887   7.519   9.344
42070SOL     OW28216  10.088   7.698  11.024
42070SOL    HW128217  10.148   7.664  11.091
42070SOL    HW228218  10.024   7.746  11.078
42071SOL     OW28219  10.196   8.980  10.509
42071SOL    HW128220  10.186   8.952  10.417
42071SOL    HW228221  10.257   8.914  10.546
42072SOL     OW28222  10.657   8.048  10.744
42072SOL    HW128223  10.715   8.026  10.818
42072SOL    HW228224  10.685   8.140  10.723
42073SOL     OW28225  10.138   8.845  10.260
42073SOL    HW128226  10.223   8.836  10.213
42073SOL    HW228227  10.075   8.855  10.187
42074SOL     OW28228  10.253   7.962  10.221
42074SOL    HW128229  10.224   7.954  10.127
42074SOL    HW228230  10.273   7.869  10.241
42075SOL     OW28231   9.866   7.497   9.804
42075SOL    HW128232   9.792   7.503   9.867
42075SOL    HW228233   9.851   7.577   9.749
42076SOL     OW28234  10.753   8.626   9.336
42076SOL    HW128235  10.771   8.560   9.406
42076SOL    HW228236  10.676   8.671   9.373
42077SOL     OW28237   9.596   7.487   9.495
42077SOL    HW128238   9.649   7.564   9.471
42077SOL    HW228239   9.663   7.427   9.532
42078SOL     OW28240  10.236   7.708   9.810
42078SOL    HW128241  10.217   7.760   9.731
42078SOL    HW228242  10.333   7.719   9.814
42079SOL     OW28243  10.399   8.132  10.794
42079SOL    HW128244  10.340   8.056  10.788
42079SOL    HW228245  10.488   8.094  10.781
42080SOL     OW28246  10.532   9.029  10.112
42080SOL    HW128247  10.549   9.090  10.039
42080SOL    HW228248  10.613   9.035  10.164
42081SOL     OW28249   9.781   8.624  10.046
42081SOL    HW128250   9.710   8.589  10.103
42081SOL    HW228251   9.746   8.594   9.958
42082SOL     OW28252  10.588   9.254   9.909
42082SOL    HW128253  10.632   9.317   9.849
42082SOL    HW228254  10.539   9.313   9.968
42083SOL     OW28255  10.347   7.984   9.333
42083SOL    HW128256  10.301   8.064   9.301
42083SOL    HW228257  10.416   8.021   9.389
42084SOL     OW28258   9.386   8.005  10.703
42084SOL    HW128259   9.481   7.995  10.680
42084SOL    HW228260   9.391   8.078  10.769
42085SOL     OW28261   9.869   7.678  10.474
42085SOL    HW128262   9.912   7.606  10.523
42085SOL    HW228263   9.778   7.674  10.509
42086SOL     OW28264  10.176   7.918   9.978
42086SOL    HW128265  10.144   7.966   9.900
42086SOL    HW228266  10.190   7.828   9.942
42087SOL     OW28267  10.362   7.525  10.055
42087SOL    HW128268  10.316   7.509   9.972
42087SOL    HW228269  10.338   7.446  10.107
42088SOL     OW28270  10.728   8.612  10.182
42088SOL    HW128271  10.670   8.536  10.198
42088SOL    HW228272  10.725   8.618  10.085
42089SOL     OW28273  10.771   8.042  10.305
42089SOL    HW128274  10.715   7.963  10.311
42089SOL    HW228275  10.858   8.008  10.330
42090SOL     OW28276  11.096   8.263   9.693
42090SOL    HW128277   0.049   8.216   9.759
42090SOL    HW228278  11.095   8.196   9.622
42091SOL     OW28279   9.801   8.879   9.431
42091SOL    HW128280   9.725   8.857   9.486
42091SOL    HW228281   9.788   8.823   9.353
42092SOL     OW28282  10.708   8.046   9.381
42092SOL    HW128283  10.653   8.011   9.454
42092SOL    HW228284  10.797   8.033   9.415
42093SOL     OW28285   9.821   7.691   9.633
42093SOL    HW128286   9.864   7.650   9.555
42093SOL    HW228287   9.791   7.776   9.594
42094SOL     OW28288  11.035   8.682  10.880
42094SOL    HW128289   0.028   8.663  10.891
42094SOL    HW228290  11.026   8.772  10.914
42095SOL     OW28291  10.356   8.807  10.683
42095SOL    HW128292  10.278   8.758  10.714
42095SOL    HW228293  10.430   8.747  10.702
42096SOL     OW28294  10.432   8.685  10.429
42096SOL    HW128295  10.343   8.689  10.466
42096SOL    HW228296  10.418   8.716  10.337
42097SOL     OW28297  10.943   8.546  10.387
42097SOL    HW128298  10.929   8.595  10.470
42097SOL    HW228299  10.862   8.572  10.340
42098SOL     OW28300  10.223   7.567  10.681
42098SOL    HW128301  10.259   7.530  10.599
42098SOL    HW228302  10.304   7.596  10.729
42099SOL     OW28303  10.017   8.513   9.665
42099SOL    HW128304  10.015   8.502   9.762
42099SOL    HW228305  10.085   8.448   9.638
42100SOL     OW28306   9.735   8.260  10.589
42100SOL    HW128307   9.806   8.265  10.656
42100SOL    HW228308   9.704   8.169  10.600
42101SOL     OW28309  10.596   7.825  10.606
42101SOL    HW128310  10.627   7.907  10.649
42101SOL    HW228311  10.502   7.847  10.589
42102SOL     OW28312   9.381   9.012  10.642
42102SOL    HW128313   9.362   9.098  10.602
42102SOL    HW228314   9.479   9.012  10.647
42103SOL     OW28315   9.685   8.544   9.813
42103SOL    HW128316   9.689   8.616   9.749
42103SOL    HW228317   9.674   8.466   9.756
42104SOL     OW28318   9.849   7.983  10.150
42104SOL    HW128319   9.873   8.055  10.087
42104SOL    HW228320   9.912   7.998  10.222
42105SOL     OW28321  10.557   8.810   9.693
42105SOL    HW128322  10.611   8.882   9.731
42105SOL    HW228323  10.470   8.833   9.731
42106SOL     OW28324  10.601   8.909  10.470
42106SOL    HW128325  10.659   8.909  10.548
42106SOL    HW228326  10.540   8.836  10.487
42107SOL     OW28327  10.887   8.079   9.780
42107SOL    HW128328  10.826   8.128   9.837
42107SOL    HW228329  10.949   8.147   9.751
42108SOL     OW28330   9.654   8.965  10.633
42108SOL    HW128331   9.640   8.932  10.541
42108SOL    HW228332   9.752   8.971  10.636
42109SOL     OW28333   9.759   8.162  10.939
42109SOL    HW128334   9.818   8.212  10.880
42109SOL    HW228335   9.779   8.071  10.914
42110SOL     OW28336  10.945   8.182  10.999
42110SOL    HW128337  10.856   8.217  11.002
42110SOL    HW228338  10.990   8.247  10.942
42111SOL     OW28339   9.867   8.340  10.355
42111SOL    HW128340   9.916   8.424  10.354
42111SOL    HW228341   9.836   8.332  10.447
42112SOL     OW28342  10.674   8.313  10.356
42112SOL    HW128343  10.595   8.286  10.306
42112SOL    HW228344  10.727   8.232  10.352
42113SOL     OW28345  10.524   7.977   9.585
42113SOL    HW128346  10.527   7.905   9.650
42113SOL    HW228347  10.459   8.038   9.624
42114SOL     OW28348   9.600   7.655  10.543
42114SOL    HW128349   9.563   7.689  10.626
42114SOL    HW228350   9.581   7.559  10.551
42115SOL     OW28351   9.363   8.721  10.592
42115SOL    HW128352   9.393   8.673  10.672
42115SOL    HW228353   9.351   8.812  10.624
42116SOL     OW28354  10.022   8.088  10.346
42116SOL    HW128355  10.106   8.075  10.299
42116SOL    HW228356   9.993   8.178  10.322
42117SOL     OW28357   9.615   7.508   9.924
42117SOL    HW128358   9.578   7.595   9.946
42117SOL    HW228359   9.619   7.463  10.011
42118SOL     OW28360  10.923   7.835   9.654
42118SOL    HW128361  10.960   7.771   9.716
42118SOL    HW228362  10.905   7.912   9.712
42119SOL     OW28363  10.351   8.206  10.266
42119SOL    HW128364  10.351   8.224  10.362
42119SOL    HW228365  10.325   8.111  10.263
42120SOL     OW28366  10.296   9.005  10.978
42120SOL    HW128367  10.293   9.073  10.907
42120SOL    HW228368  10.266   8.927  10.930
42121SOL     OW28369   9.684   8.373  11.072
42121SOL    HW128370   9.758   8.387   0.032
42121SOL    HW228371   9.708   8.286  11.033
42122SOL     OW28372  10.802   7.717   9.438
42122SOL    HW128373  10.745   7.652   9.483
42122SOL    HW228374  10.847   7.760   9.513
42123SOL     OW28375  10.603   8.291   9.337
42123SOL    HW128376  10.651   8.207   9.351
42123SOL    HW228377  10.642   8.321   9.253
42124SOL     OW28378  10.383   8.805  10.169
42124SOL    HW128379  10.389   8.727  10.109
42124SOL    HW228380  10.445   8.870  10.130
42125SOL     OW28381   9.607   8.262  10.303
42125SOL    HW128382   9.702   8.279  10.313
42125SOL    HW228383   9.600   8.168  10.326
42126SOL     OW28384   9.634   7.964  10.312
42126SOL    HW128385   9.610   7.872  10.290
42126SOL    HW228386   9.704   7.982  10.245
42127SOL     OW28387  10.460   7.661  10.788
42127SOL    HW128388  10.491   7.723  10.854
42127SOL    HW228389  10.501   7.696  10.708
42128SOL     OW28390   9.311   8.778   9.507
42128SOL    HW128391   9.219   8.791   9.475
42128SOL    HW228392   9.309   8.684   9.536
42129SOL     OW28393   9.401   9.238  10.240
42129SOL    HW128394   9.370   9.163  10.185
42129SOL    HW228395   9.495   9.244  10.212
42130SOL     OW28396   9.795   9.031  10.251
42130SOL    HW128397   9.869   9.085  10.286
42130SOL    HW228398   9.842   8.972  10.188
42131SOL     OW28399  10.309   8.234  10.541
42131SOL    HW128400  10.366   8.200  10.611
42131SOL    HW228401  10.222   8.203  10.570
42132SOL     OW28402   9.350   7.973  10.425
42132SOL    HW128403   9.438   7.972  10.384
42132SOL    HW228404   9.372   7.985  10.519
42133SOL     OW28405  10.100   8.004   9.719
42133SOL    HW128406  10.126   7.950   9.642
42133SOL    HW228407  10.032   8.061   9.679
42134SOL     OW28408   9.546   8.998  11.027
42134SOL    HW128409   9.491   9.025   0.002
42134SOL    HW228410   9.598   8.926  11.065
42135SOL     OW28411  10.003   7.925  10.576
42135SOL    HW128412   9.957   7.846  10.546
42135SOL    HW228413   9.994   7.986  10.501
42136SOL     OW28414  10.250   9.142  10.752
42136SOL    HW128415  10.203   9.099  10.680
42136SOL    HW228416  10.221   9.235  10.747
42137SOL     OW28417   9.754   7.926   9.511
42137SOL    HW128418   9.820   7.998   9.516
42137SOL    HW228419   9.672   7.976   9.494
42138SOL     OW28420   9.481   8.587  10.794
42138SOL    HW128421   9.461   8.532  10.873
42138SOL    HW228422   9.495   8.518  10.725
42139SOL     OW28423  10.619   8.510  10.537
42139SOL    HW128424  10.639   8.442  10.471
42139SOL    HW228425  10.553   8.566  10.491
42140SOL     OW28426  10.616   8.299   9.613
42140SOL    HW128427  10.537   8.264   9.655
42140SOL    HW228428  10.590   8.307   9.519
42141SOL     OW28429  11.036   9.213  10.442
42141SOL    HW128430   0.011   9.230  10.383
42141SOL    HW228431  11.022   9.116  10.434
42142SOL     OW28432  10.559   9.175  10.428
42142SOL    HW128433  10.649   9.189  10.394
42142SOL    HW228434  10.557   9.078  10.438
42143SOL     OW28435   9.432   8.694  10.336
42143SOL    HW128436   9.420   8.709  10.432
42143SOL    HW228437   9.342   8.669  10.311
42144SOL     OW28438  11.047   7.583   9.853
42144SOL    HW128439  11.099   7.580   9.769
42144SOL    HW228440  11.041   7.490   9.880
42145SOL     OW28441  10.690   9.026   9.805
42145SOL    HW128442  10.741   9.053   9.726
42145SOL    HW228443  10.649   9.109   9.836
42146SOL     OW28444  10.562   8.381   9.987
42146SOL    HW128445  10.637   8.322  10.007
42146SOL    HW228446  10.605   8.448   9.931
42147SOL     OW28447  10.113   8.699  10.756
42147SOL    HW128448  10.088   8.741  10.841
42147SOL    HW228449  10.039   8.726  10.699
42148SOL     OW28450   9.985   9.065   9.474
42148SOL    HW128451   9.996   9.080   9.378
42148SOL    HW228452   9.926   8.986   9.471
42149SOL     OW28453   9.509   7.759  10.005
42149SOL    HW128454   9.576   7.813   9.958
42149SOL    HW228455   9.547   7.752  10.094
42150SOL     OW28456  10.513   9.087   9.333
42150SOL    HW128457  10.515   8.992   9.355
42150SOL    HW228458  10.445   9.091   9.264
42151SOL     OW28459  10.135   8.437  10.681
42151SOL    HW128460  10.185   8.438  10.599
42151SOL    HW228461  10.144   8.528  10.713
42152SOL     OW28462  10.210   8.348   9.583
42152SOL    HW128463  10.283   8.384   9.530
42152SOL    HW228464  10.252   8.272   9.627
42153SOL     OW28465  10.830   9.094   9.340
42153SOL    HW128466  10.733   9.086   9.332
42153SOL    HW228467  10.861   9.081   9.249
42154SOL     OW28468   9.687   8.749  10.803
42154SOL    HW128469   9.657   8.815  10.739
42154SOL    HW228470   9.611   8.687  10.802
42155SOL     OW28471  10.891   8.722  10.587
42155SOL    HW128472  10.969   8.721  10.644
42155SOL    HW228473  10.843   8.800  10.622
42156SOL     OW28474  10.373   8.565  10.056
42156SOL    HW128475  10.293   8.512  10.073
42156SOL    HW228476  10.438   8.496  10.033
42157SOL     OW28477  10.335   7.678  10.287
42157SOL    HW128478  10.328   7.636  10.199
42157SOL    HW228479  10.340   7.599  10.344
42158SOL     OW28480   9.923   8.929   9.803
42158SOL    HW128481   9.982   8.900   9.731
42158SOL    HW228482   9.856   8.980   9.756
42159SOL     OW28483   9.563   8.819   9.584
42159SOL    HW128484   9.467   8.806   9.576
42159SOL    HW228485   9.570   8.843   9.679
42160SOL     OW28486   9.436   8.456  11.016
42160SOL    HW128487   9.376   8.440  11.090
42160SOL    HW228488   9.523   8.428  11.052
42161SOL     OW28489   9.975   7.647  10.781
42161SOL    HW128490  10.060   7.634  10.735
42161SOL    HW228491  10.007   7.666  10.871
42162SOL     OW28492   9.404   7.802   9.352
42162SOL    HW128493   9.313   7.789   9.324
42162SOL    HW228494   9.435   7.869   9.289
42163SOL     OW28495  10.726   8.302  10.726
42163SOL    HW128496  10.670   8.361  10.673
42163SOL    HW228497  10.814   8.335  10.705
42164SOL     OW28498   9.358   7.610   9.608
42164SOL    HW128499   9.352   7.695   9.563
42164SOL    HW228500   9.442   7.576   9.575
42165SOL     OW28501  10.515   8.807   9.420
42165SOL    HW128502  10.425   8.772   9.423
42165SOL    HW228503  10.538   8.810   9.515
42166SOL     OW28504   9.941   8.267  10.761
42166SOL    HW128505  10.000   8.339  10.735
42166SOL    HW228506  10.005   8.194  10.773
42167SOL     OW28507  10.802   9.217  10.302
42167SOL    HW128508  10.830   9.245  10.215
42167SOL    HW228509  10.884   9.227  10.354
42168SOL     OW28510  10.032   7.988  11.023
42168SOL    HW128511  10.057   8.068  11.072
42168SOL    HW228512  10.107   7.930  11.041
42169SOL     OW28513   9.685   9.175  10.874
42169SOL    HW128514   9.607   9.230  10.854
42169SOL    HW228515   9.646   9.106  10.931
42170SOL     OW28516  10.993   8.312  10.530
42170SOL    HW128517  10.999   8.240  10.466
42170SOL    HW228518  10.968   8.388  10.475
42171SOL     OW28519  10.498   7.778   9.790
42171SOL    HW128520  10.559   7.705   9.771
42171SOL    HW228521  10.547   7.826   9.859
42172SOL     OW28522   9.909   8.189   9.965
42172SOL    HW128523   9.956   8.272   9.951
42172SOL    HW228524   9.831   8.201   9.908
42173SOL     OW28525  11.048   7.819  10.916
42173SOL    HW128526  11.035   7.895  10.857
42173SOL    HW228527  10.975   7.826  10.979
42174SOL     OW28528  11.046   8.366  10.805
42174SOL    HW128529  11.037   8.462  10.811
42174SOL    HW228530  11.042   8.348  10.710
42175SOL     OW28531  10.169   8.819   9.348
42175SOL    HW128532  10.145   8.837   9.441
42175SOL    HW228533  10.194   8.905   9.313
42176SOL     OW28534   9.985   9.235  10.267
42176SOL    HW128535   9.959   9.322  10.232
42176SOL    HW228536  10.076   9.224  10.236
42177SOL     OW28537  10.184   8.399  10.156
42177SOL    HW128538  10.235   8.325  10.194
42177SOL    HW228539  10.156   8.450  10.234
42178SOL     OW28540  10.403   8.442   9.412
42178SOL    HW128541  10.376   8.495   9.336
42178SOL    HW228542  10.479   8.391   9.375
42179SOL     OW28543   0.062   8.998  10.168
42179SOL    HW128544  11.095   8.984  10.101
42179SOL    HW228545   0.063   8.913  10.213
42180SOL     OW28546   9.394   8.706   9.990
42180SOL    HW128547   9.392   8.648  10.066
42180SOL    HW228548   9.470   8.672   9.941
42181SOL     OW28549   9.999   8.863  10.945
42181SOL    HW128550   9.931   8.806  10.986
42181SOL    HW228551   9.948   8.942  10.923
42182SOL     OW28552   0.008   7.634  10.543
42182SOL    HW128553   0.039   7.546  10.565
42182SOL    HW228554  11.084   7.625  10.451
42183SOL     OW28555   9.730   7.854   9.862
42183SOL    HW128556   9.775   7.813   9.786
42183SOL    HW228557   9.801   7.860   9.927
42184SOL     OW28558  10.990   8.953  10.432
42184SOL    HW128559  10.924   8.915  10.372
42184SOL    HW228560  11.015   8.878  10.488
42185SOL     OW28561   9.651   7.995  10.592
42185SOL    HW128562   9.709   7.937  10.647
42185SOL    HW228563   9.663   7.959  10.503
42186SOL     OW28564  10.140   9.046   9.991
42186SOL    HW128565  10.131   9.119   9.927
42186SOL    HW228566  10.055   8.999   9.982
42187SOL     OW28567  10.717   7.662  10.422
42187SOL    HW128568  10.755   7.584  10.464
42187SOL    HW228569  10.688   7.715  10.499
42188SOL     OW28570  10.329   7.444  10.449
42188SOL    HW128571  10.281   7.367  10.416
42188SOL    HW228572  10.421   7.409  10.452
42189SOL     OW28573  10.098   8.794   9.624
42189SOL    HW128574  10.057   8.706   9.633
42189SOL    HW228575  10.175   8.785   9.681
42190SOL     OW28576   9.918   8.997  10.599
42190SOL    HW128577   9.920   9.083  10.647
42190SOL    HW228578  10.002   9.002  10.550
42191SOL     OW28579  10.652   7.494   9.517
42191SOL    HW128580  10.666   7.453   9.431
42191SOL    HW228581  10.566   7.454   9.543
42192SOL     OW28582  10.635   7.923   9.984
42192SOL    HW128583  10.568   7.994   9.986
42192SOL    HW228584  10.627   7.881  10.071
42193SOL     OW28585  10.913   7.660  10.203
42193SOL    HW128586  10.839   7.650  10.266
42193SOL    HW228587  10.875   7.716  10.136
42194SOL     OW28588   9.349   8.521   9.614
42194SOL    HW128589   9.443   8.509   9.592
42194SOL    HW228590   9.322   8.429   9.632
42195SOL     OW28591  10.198   9.092   9.643
42195SOL    HW128592  10.121   9.077   9.585
42195SOL    HW228593  10.166   9.162   9.703
42196SOL     OW28594   9.552   9.966   0.139
42196SOL    HW128595   9.466   9.938   0.173
42196SOL    HW228596   9.553   9.936   0.048
42197SOL     OW28597   9.536   9.585   0.998
42197SOL    HW128598   9.558   9.564   1.092
42197SOL    HW228599   9.450   9.539   0.987
42198SOL     OW28600   9.312   9.707   0.638
42198SOL    HW128601   9.234   9.741   0.686
42198SOL    HW228602   9.277   9.623   0.605
42199SOL     OW28603   9.870  10.591   1.177
42199SOL    HW128604   9.782  10.585   1.138
42199SOL    HW228605   9.868  10.682   1.211
42200SOL     OW28606  10.899  10.840   0.713
42200SOL    HW128607  10.861  10.803   0.795
42200SOL    HW228608  10.832  10.817   0.648
42201SOL     OW28609  10.459   9.998   0.716
42201SOL    HW128610  10.492  10.088   0.701
42201SOL    HW228611  10.418  10.006   0.803
42202SOL     OW28612  11.095   9.927   0.224
42202SOL    HW128613  11.036   9.952   0.152
42202SOL    HW228614  11.058   9.842   0.253
42203SOL     OW28615  10.065  10.460   1.041
42203SOL    HW128616   9.992  10.499   1.093
42203SOL    HW228617  10.096  10.539   0.993
42204SOL     OW28618  10.175  10.126   1.813
42204SOL    HW128619  10.135  10.190   1.873
42204SOL    HW228620  10.183  10.173   1.728
42205SOL     OW28621  10.000  10.302   0.638
42205SOL    HW128622  10.067  10.294   0.709
42205SOL    HW228623   9.933  10.359   0.680
42206SOL     OW28624  10.029  10.448   1.793
42206SOL    HW128625  10.063  10.533   1.827
42206SOL    HW228626   9.943  10.474   1.755
42207SOL     OW28627   9.636  10.756   1.076
42207SOL    HW128628   9.563  10.722   1.022
42207SOL    HW228629   9.690  10.807   1.012
42208SOL     OW28630  10.765  10.809   1.377
42208SOL    HW128631  10.794  10.898   1.354
42208SOL    HW228632  10.830  10.785   1.446
42209SOL     OW28633   9.752   9.697   1.535
42209SOL    HW128634   9.816   9.628   1.511
42209SOL    HW228635   9.667   9.655   1.513
42210SOL     OW28636   9.557  10.767   0.524
42210SOL    HW128637   9.561  10.861   0.545
42210SOL    HW228638   9.487  10.734   0.583
42211SOL     OW28639   9.583  10.408   0.899
42211SOL    HW128640   9.573  10.328   0.953
42211SOL    HW228641   9.533  10.473   0.952
42212SOL     OW28642   9.891  10.292   0.146
42212SOL    HW128643   9.934  10.356   0.089
42212SOL    HW228644   9.922  10.320   0.234
42213SOL     OW28645  10.929   9.398   1.501
42213SOL    HW128646  10.921   9.461   1.429
42213SOL    HW228647  10.931   9.453   1.580
42214SOL     OW28648   9.432   9.965   0.558
42214SOL    HW128649   9.407   9.872   0.576
42214SOL    HW228650   9.426  10.007   0.646
42215SOL     OW28651   9.361  10.930   0.119
42215SOL    HW128652   9.345  10.850   0.172
42215SOL    HW228653   9.348  11.001   0.184
42216SOL     OW28654  10.981  10.261   0.663
42216SOL    HW128655  11.056  10.201   0.647
42216SOL    HW228656  10.994  10.329   0.597
42217SOL     OW28657   9.409  10.049   1.592
42217SOL    HW128658   9.491  10.100   1.603
42217SOL    HW228659   9.341  10.118   1.585
42218SOL     OW28660   9.898  10.709   0.746
42218SOL    HW128661   9.869  10.616   0.752
42218SOL    HW228662   9.877  10.728   0.652
42219SOL     OW28663  10.592  10.535   1.444
42219SOL    HW128664  10.622  10.487   1.364
42219SOL    HW228665  10.670  10.522   1.503
42220SOL     OW28666  10.151   9.328   0.457
42220SOL    HW128667  10.182   9.420   0.471
42220SOL    HW228668  10.056   9.334   0.480
42221SOL     OW28669   9.509  10.292   1.242
42221SOL    HW128670   9.596  10.250   1.233
42221SOL    HW228671   9.448  10.222   1.217
42222SOL     OW28672  10.856  10.324   0.216
42222SOL    HW128673  10.779  10.275   0.250
42222SOL    HW228674  10.920  10.312   0.287
42223SOL     OW28675  10.493  11.089   1.629
42223SOL    HW128676  10.494   0.056   1.560
42223SOL    HW228677  10.520  11.010   1.578
42224SOL     OW28678   9.660   9.549   1.803
42224SOL    HW128679   9.706   9.632   1.788
42224SOL    HW228680   9.576   9.580   1.840
42225SOL     OW28681  10.773  10.742   0.942
42225SOL    HW128682  10.706  10.763   1.009
42225SOL    HW228683  10.749  10.649   0.919
42226SOL     OW28684   9.900  10.025   0.258
42226SOL    HW128685   9.904  10.112   0.215
42226SOL    HW228686   9.841  10.040   0.334
42227SOL     OW28687  10.577   9.662   0.912
42227SOL    HW128688  10.487   9.640   0.939
42227SOL    HW228689  10.629   9.610   0.976
42228SOL     OW28690  10.872  10.987   0.327
42228SOL    HW128691  10.969  10.981   0.326
42228SOL    HW228692  10.852  10.992   0.232
42229SOL     OW28693  10.103   9.934   1.470
42229SOL    HW128694  10.089   9.897   1.560
42229SOL    HW228695  10.053   9.872   1.414
42230SOL     OW28696  10.706   9.793   1.678
42230SOL    HW128697  10.707   9.848   1.759
42230SOL    HW228698  10.751   9.713   1.706
42231SOL     OW28699  10.271  10.226   1.577
42231SOL    HW128700  10.306  10.139   1.548
42231SOL    HW228701  10.221  10.253   1.497
42232SOL     OW28702  10.322   9.697   1.251
42232SOL    HW128703  10.238   9.722   1.291
42232SOL    HW228704  10.295   9.664   1.165
42233SOL     OW28705  10.354   9.998   0.418
42233SOL    HW128706  10.370  10.001   0.514
42233SOL    HW228707  10.264   9.960   0.415
42234SOL     OW28708   9.415  10.134   0.774
42234SOL    HW128709   9.481  10.120   0.846
42234SOL    HW228710   9.370  10.213   0.805
42235SOL     OW28711   9.396   0.044   1.564
42235SOL    HW128712   9.418   0.018   1.657
42235SOL    HW228713   9.300   0.036   1.562
42236SOL     OW28714  10.202   9.696   0.214
42236SOL    HW128715  10.250   9.744   0.143
42236SOL    HW228716  10.208   9.604   0.183
42237SOL     OW28717  11.016   9.896   1.834
42237SOL    HW128718  10.991   9.972   1.778
42237SOL    HW228719  11.065   9.842   1.770
42238SOL     OW28720  10.684  10.470   0.588
42238SOL    HW128721  10.744  10.473   0.512
42238SOL    HW228722  10.610  10.523   0.554
42239SOL     OW28723   9.863   9.512   0.898
42239SOL    HW128724   9.866   9.531   0.994
42239SOL    HW228725   9.855   9.600   0.858
42240SOL     OW28726  10.325  10.776   0.494
42240SOL    HW128727  10.249  10.796   0.438
42240SOL    HW228728  10.294  10.807   0.581
42241SOL     OW28729   9.656   0.010   0.886
42241SOL    HW128730   9.712  11.034   0.901
42241SOL    HW228731   9.721   0.083   0.881
42242SOL     OW28732  11.089  10.381   0.896
42242SOL    HW128733  11.028  10.355   0.825
42242SOL    HW228734  11.038  10.360   0.977
42243SOL     OW28735  10.522  10.841   1.520
42243SOL    HW128736  10.607  10.811   1.484
42243SOL    HW228737  10.461  10.817   1.448
42244SOL     OW28738   9.626  10.271   0.261
42244SOL    HW128739   9.706  10.284   0.209
42244SOL    HW228740   9.594  10.185   0.231
42245SOL     OW28741  10.784  10.061   0.700
42245SOL    HW128742  10.777  10.020   0.788
42245SOL    HW228743  10.856  10.125   0.710
42246SOL     OW28744   9.792  10.569   1.715
42246SOL    HW128745   9.742  10.574   1.630
42246SOL    HW228746   9.718  10.566   1.778
42247SOL     OW28747  10.415  11.082   0.217
42247SOL    HW128748  10.371  11.042   0.293
42247SOL    HW228749  10.434  11.005   0.160
42248SOL     OW28750   9.490   9.606   1.497
42248SOL    HW128751   9.419   9.669   1.476
42248SOL    HW228752   9.442   9.530   1.531
42249SOL     OW28753  10.742   9.417   0.461
42249SOL    HW128754  10.744   9.416   0.364
42249SOL    HW228755  10.835   9.434   0.485
42250SOL     OW28756   9.715   9.985   0.473
42250SOL    HW128757   9.732   9.890   0.494
42250SOL    HW228758   9.622   9.992   0.500
42251SOL     OW28759  10.839   9.544   1.740
42251SOL    HW128760  10.829   9.551   1.838
42251SOL    HW228761  10.781   9.469   1.720
42252SOL     OW28762   9.921   9.414   0.098
42252SOL    HW128763  10.015   9.401   0.117
42252SOL    HW228764   9.915   9.401   0.003
42253SOL     OW28765  10.072   9.574   1.749
42253SOL    HW128766  10.147   9.511   1.751
42253SOL    HW228767  10.015   9.543   1.822
42254SOL     OW28768  10.195  10.849   1.164
42254SOL    HW128769  10.173  10.807   1.079
42254SOL    HW228770  10.252  10.784   1.208
42255SOL     OW28771  10.631   9.910   1.430
42255SOL    HW128772  10.671   9.875   1.511
42255SOL    HW228773  10.670   9.999   1.422
42256SOL     OW28774  10.131  10.706   0.939
42256SOL    HW128775  10.217  10.702   0.893
42256SOL    HW228776  10.070  10.713   0.864
42257SOL     OW28777  10.258   9.824   0.894
42257SOL    HW128778  10.233   9.810   0.800
42257SOL    HW228779  10.262   9.733   0.927
42258SOL     OW28780   9.885   9.354   0.486
42258SOL    HW128781   9.810   9.361   0.549
42258SOL    HW228782   9.869   9.435   0.432
42259SOL     OW28783  10.763  10.505   0.025
42259SOL    HW128784  10.791  10.433   0.084
42259SOL    HW228785  10.676  10.528   0.058
42260SOL     OW28786   9.592   9.375   0.204
42260SOL    HW128787   9.626   9.422   0.126
42260SOL    HW228788   9.659   9.306   0.218
42261SOL     OW28789  10.258   9.574   0.464
42261SOL    HW128790  10.242   9.620   0.380
42261SOL    HW228791  10.354   9.587   0.476
42262SOL     OW28792  10.368   9.990   1.462
42262SOL    HW128793  10.295   9.926   1.473
42262SOL    HW228794  10.448   9.935   1.467
42263SOL     OW28795  10.553  10.877   0.811
42263SOL    HW128796  10.515  10.965   0.799
42263SOL    HW228797  10.645  10.895   0.833
42264SOL     OW28798   9.793  10.458   0.733
42264SOL    HW128799   9.720  10.437   0.796
42264SOL    HW228800   9.748  10.439   0.647
42265SOL     OW28801  10.319   9.831   0.021
42265SOL    HW128802  10.276   9.918   0.013
42265SOL    HW228803  10.408   9.857   0.050
42266SOL     OW28804   9.370   9.851   1.409
42266SOL    HW128805   9.435   9.878   1.343
42266SOL    HW228806   9.354   9.933   1.458
42267SOL     OW28807   9.870   9.564   1.177
42267SOL    HW128808   9.913   9.493   1.226
42267SOL    HW228809   9.776   9.551   1.204
42268SOL     OW28810  10.195   9.764   0.646
42268SOL    HW128811  10.136   9.820   0.593
42268SOL    HW228812  10.204   9.686   0.588
42269SOL     OW28813  10.374   9.379   0.743
42269SOL    HW128814  10.310   9.397   0.674
42269SOL    HW228815  10.334   9.302   0.789
42270SOL     OW28816  10.736  10.489   0.870
42270SOL    HW128817  10.679  10.414   0.890
42270SOL    HW228818  10.736  10.486   0.772
42271SOL     OW28819  10.772   9.898   1.010
42271SOL    HW128820  10.721   9.816   1.003
42271SOL    HW228821  10.861   9.868   1.033
42272SOL     OW28822   0.007  10.148   0.377
42272SOL    HW128823   0.057  10.098   0.444
42272SOL    HW228824   0.009  10.081   0.306
42273SOL     OW28825   9.811  10.730   0.175
42273SOL    HW128826   9.727  10.708   0.218
42273SOL    HW228827   9.800  10.686   0.089
42274SOL     OW28828  10.698   9.903   0.073
42274SOL    HW128829  10.649   9.882   0.156
42274SOL    HW228830  10.750   9.824   0.059
42275SOL     OW28831   9.829   9.549   0.316
42275SOL    HW128832   9.846   9.500   0.234
42275SOL    HW228833   9.796   9.634   0.280
42276SOL     OW28834  11.052  10.561   1.619
42276SOL    HW128835   0.031  10.522   1.581
42276SOL    HW228836  11.087  10.613   1.692
42277SOL     OW28837  10.362  10.680   1.367
42277SOL    HW128838  10.275  10.639   1.383
42277SOL    HW228839  10.426  10.608   1.387
42278SOL     OW28840  10.906  10.910   1.621
42278SOL    HW128841  10.909  10.986   1.561
42278SOL    HW228842  10.999  10.886   1.628
42279SOL     OW28843  10.456  10.527   1.109
42279SOL    HW128844  10.366  10.516   1.145
42279SOL    HW228845  10.437  10.559   1.019
42280SOL     OW28846  10.923  10.391   1.102
42280SOL    HW128847  10.906  10.447   1.181
42280SOL    HW228848  10.876  10.441   1.033
42281SOL     OW28849  10.235   9.401   1.407
42281SOL    HW128850  10.257   9.381   1.314
42281SOL    HW228851  10.316   9.445   1.437
42282SOL     OW28852  10.313  10.449   1.739
42282SOL    HW128853  10.220  10.456   1.768
42282SOL    HW228854  10.308  10.374   1.676
42283SOL     OW28855  10.003  10.378   0.372
42283SOL    HW128856   9.998  10.350   0.466
42283SOL    HW228857  10.085  10.333   0.342
42284SOL     OW28858   9.737  10.124   1.249
42284SOL    HW128859   9.806  10.123   1.318
42284SOL    HW228860   9.691  10.039   1.263
42285SOL     OW28861  10.602   9.689   1.270
42285SOL    HW128862  10.628   9.768   1.321
42285SOL    HW228863  10.508   9.706   1.253
42286SOL     OW28864   9.362  10.891   1.356
42286SOL    HW128865   9.333  10.962   1.297
42286SOL    HW228866   9.459  10.893   1.348
42287SOL     OW28867   9.680  10.411   0.495
42287SOL    HW128868   9.675  10.491   0.441
42287SOL    HW228869   9.660  10.342   0.429
42288SOL     OW28870   9.871   9.830   0.860
42288SOL    HW128871   9.893   9.898   0.794
42288SOL    HW228872   9.932   9.852   0.933
42289SOL     OW28873  10.542  10.638   0.412
42289SOL    HW128874  10.601  10.713   0.429
42289SOL    HW228875  10.457  10.675   0.443
42290SOL     OW28876  10.598  10.774   1.160
42290SOL    HW128877  10.651  10.770   1.241
42290SOL    HW228878  10.546  10.692   1.161
42291SOL     OW28879  10.878   9.931   0.445
42291SOL    HW128880  10.824   9.970   0.515
42291SOL    HW228881  10.934  10.004   0.418
42292SOL     OW28882   9.643  10.829   1.331
42292SOL    HW128883   9.629  10.799   1.239
42292SOL    HW228884   9.739  10.838   1.331
42293SOL     OW28885   9.747  10.041   1.621
42293SOL    HW128886   9.805  10.077   1.552
42293SOL    HW228887   9.739   9.948   1.596
42294SOL     OW28888  10.931  10.080   1.665
42294SOL    HW128889  10.841  10.117   1.668
42294SOL    HW228890  10.975  10.142   1.604
42295SOL     OW28891  10.292   9.418   1.739
42295SOL    HW128892  10.347   9.496   1.722
42295SOL    HW228893  10.350   9.346   1.708
42296SOL     OW28894   9.821   9.331   1.747
42296SOL    HW128895   9.773   9.275   1.683
42296SOL    HW228896   9.760   9.407   1.753
42297SOL     OW28897   9.922  10.191   1.044
42297SOL    HW128898   9.933  10.287   1.042
42297SOL    HW228899   9.852  10.178   1.111
42298SOL     OW28900  10.691  10.172   1.024
42298SOL    HW128901  10.603  10.142   0.996
42298SOL    HW228902  10.736  10.086   1.033
42299SOL     OW28903  10.540   9.822   0.284
42299SOL    HW128904  10.543   9.751   0.351
42299SOL    HW228905  10.475   9.883   0.323
42300SOL     OW28906   9.617   9.517   1.251
42300SOL    HW128907   9.559   9.537   1.327
42300SOL    HW228908   9.601   9.420   1.241
42301SOL     OW28909   9.342  10.617   1.273
42301SOL    HW128910   9.373  10.562   1.347
42301SOL    HW228911   9.331  10.704   1.314
42302SOL     OW28912  10.038   9.954   1.042
42302SOL    HW128913  10.112   9.958   0.979
42302SOL    HW228914   9.998  10.043   1.036
42303SOL     OW28915   9.642   9.383   0.611
42303SOL    HW128916   9.600   9.466   0.640
42303SOL    HW228917   9.638   9.331   0.693
42304SOL     OW28918  10.918   9.700   0.321
42304SOL    HW128919  10.945   9.642   0.392
42304SOL    HW228920  10.892   9.782   0.370
42305SOL     OW28921  10.369  10.061   0.978
42305SOL    HW128922  10.348  10.073   1.073
42305SOL    HW228923  10.335   9.971   0.961
42306SOL     OW28924  10.289  10.828   1.691
42306SOL    HW128925  10.315  10.904   1.636
42306SOL    HW228926  10.200  10.806   1.658
42307SOL     OW28927   9.663  10.202   1.809
42307SOL    HW128928   9.746  10.228   1.852
42307SOL    HW228929   9.692  10.130   1.749
42308SOL     OW28930  10.875   9.602   0.083
42308SOL    HW128931  10.798   9.550   0.108
42308SOL    HW228932  10.900   9.640   0.170
42309SOL     OW28933  10.621  10.157   0.014
42309SOL    HW128934  10.652  10.067   0.037
42309SOL    HW228935  10.641  10.164  11.021
42310SOL     OW28936  10.393  10.642   0.860
42310SOL    HW128937  10.383  10.574   0.790
42310SOL    HW228938  10.453  10.707   0.820
42311SOL     OW28939   9.585  10.119   0.985
42311SOL    HW128940   9.681  10.114   0.975
42311SOL    HW228941   9.564  10.037   1.033
42312SOL     OW28942   9.656   9.829   1.012
42312SOL    HW128943   9.614   9.743   0.997
42312SOL    HW228944   9.725   9.833   0.942
42313SOL     OW28945  10.456   9.685   1.671
42313SOL    HW128946  10.409   9.731   1.744
42313SOL    HW228947  10.543   9.729   1.670
42314SOL     OW28948  10.483   9.500   1.472
42314SOL    HW128949  10.476   9.569   1.541
42314SOL    HW228950  10.510   9.553   1.395
42315SOL     OW28951   9.311  10.669   0.216
42315SOL    HW128952   9.225  10.683   0.169
42315SOL    HW228953   9.314  10.572   0.223
42316SOL     OW28954   9.819  10.897   0.925
42316SOL    HW128955   9.899  10.951   0.929
42316SOL    HW228956   9.846  10.828   0.861
42317SOL     OW28957  10.297  10.107   1.231
42317SOL    HW128958  10.339  10.068   1.311
42317SOL    HW228959  10.209  10.069   1.238
42318SOL     OW28960   9.392   9.931   1.118
42318SOL    HW128961   9.413   9.842   1.089
42318SOL    HW228962   9.302   9.923   1.155
42319SOL     OW28963   9.529   9.828   1.713
42319SOL    HW128964   9.555   9.768   1.643
42319SOL    HW228965   9.475   9.894   1.664
42320SOL     OW28966  10.707  10.229   1.657
42320SOL    HW128967  10.723  10.324   1.665
42320SOL    HW228968  10.689  10.218   1.561
42321SOL     OW28969  10.111   9.889   0.383
42321SOL    HW128970  10.133   9.820   0.318
42321SOL    HW228971  10.037   9.936   0.340
42322SOL     OW28972   9.527  10.831   1.738
42322SOL    HW128973   9.498  10.901   1.797
42322SOL    HW228974   9.544  10.758   1.800
42323SOL     OW28975  10.001   9.795   1.265
42323SOL    HW128976   9.946   9.720   1.236
42323SOL    HW228977  10.000   9.854   1.188
42324SOL     OW28978   9.762   9.787   0.198
42324SOL    HW128979   9.828   9.855   0.217
42324SOL    HW228980   9.682   9.842   0.191
42325SOL     OW28981   9.439  10.437   1.465
42325SOL    HW128982   9.459  10.384   1.544
42325SOL    HW228983   9.457  10.375   1.391
42326SOL     OW28984  10.632  10.361   1.227
42326SOL    HW128985  10.657  10.300   1.156
42326SOL    HW228986  10.567  10.418   1.182
42327SOL     OW28987  10.638  10.201   0.298
42327SOL    HW128988  10.564  10.166   0.349
42327SOL    HW228989  10.604  10.197   0.208
42328SOL     OW28990  11.048  11.042   1.152
42328SOL    HW128991   0.017  11.062   1.087
42328SOL    HW228992  11.029  10.948   1.133
42329SOL     OW28993  10.556  11.039   1.070
42329SOL    HW128994  10.638  11.054   1.020
42329SOL    HW228995  10.564  10.946   1.097
42330SOL     OW28996   9.418  10.577   1.017
42330SOL    HW128997   9.384  10.589   1.109
42330SOL    HW228998   9.344  10.528   0.975
42331SOL     OW28999  10.004  10.983   1.716
42331SOL    HW129000   9.924  11.039   1.718
42331SOL    HW229001  10.061  11.034   1.656
42332SOL     OW29002  10.211   9.429   0.145
42332SOL    HW129003  10.263   9.386   0.077
42332SOL    HW229004  10.228   9.371   0.221
42333SOL     OW29005  11.012   9.448   0.534
42333SOL    HW129006  11.075   9.448   0.458
42333SOL    HW229007  11.024   9.359   0.573
42334SOL     OW29008  10.686  10.853   0.477
42334SOL    HW129009  10.761  10.892   0.429
42334SOL    HW229010  10.637  10.931   0.508
42335SOL     OW29011   9.445   0.010   1.825
42335SOL    HW129012   9.412  11.040   1.884
42335SOL    HW229013   9.482   0.072   1.889
42336SOL     OW29014  10.577  10.235   0.671
42336SOL    HW129015  10.651  10.172   0.676
42336SOL    HW229016  10.618  10.312   0.628
42337SOL     OW29017  10.104  10.587   1.418
42337SOL    HW129018  10.076  10.628   1.502
42337SOL    HW229019  10.023  10.593   1.365
42338SOL     OW29020  10.012  10.901   0.151
42338SOL    HW129021   9.961  10.952   0.088
42338SOL    HW229022   9.945  10.836   0.180
42339SOL     OW29023   9.563   9.629   0.702
42339SOL    HW129024   9.473   9.664   0.687
42339SOL    HW229025   9.570   9.632   0.798
42340SOL     OW29026  10.523  10.912   0.042
42340SOL    HW129027  10.526  10.818   0.068
42340SOL    HW229028  10.458  10.908  11.071
42341SOL     OW29029  10.139  10.322   1.362
42341SOL    HW129030  10.189  10.311   1.279
42341SOL    HW229031  10.131  10.418   1.371
42342SOL     OW29032  10.215  10.246   0.276
42342SOL    HW129033  10.293  10.266   0.220
42342SOL    HW229034  10.241  10.163   0.317
42343SOL     OW29035  10.805  10.994   0.062
42343SOL    HW129036  10.744  10.925   0.034
42343SOL    HW229037  10.887  10.970   0.016
42344SOL     OW29038   9.659  10.588   1.485
42344SOL    HW129039   9.629  10.668   1.438
42344SOL    HW229040   9.584  10.528   1.473
42345SOL     OW29041  10.883  10.569   1.295
42345SOL    HW129042  10.976  10.598   1.300
42345SOL    HW229043  10.833  10.650   1.312
42346SOL     OW29044  10.362  10.427   0.706
42346SOL    HW129045  10.292  10.374   0.749
42346SOL    HW229046  10.425  10.358   0.681
42347SOL     OW29047  10.338   9.542   0.978
42347SOL    HW129048  10.334   9.497   0.892
42347SOL    HW229049  10.347   9.467   1.039
42348SOL     OW29050   9.922  10.828   0.487
42348SOL    HW129051   9.935  10.780   0.404
42348SOL    HW229052   9.868  10.903   0.458
42349SOL     OW29053   9.571  10.654   0.291
42349SOL    HW129054   9.477  10.662   0.266
42349SOL    HW229055   9.571  10.701   0.376
42350SOL     OW29056   9.453  10.339   1.714
42350SOL    HW129057   9.375  10.319   1.771
42350SOL    HW229058   9.522  10.282   1.753
42351SOL     OW29059   9.989   9.494   1.492
42351SOL    HW129060  10.075   9.454   1.468
42351SOL    HW229061  10.011   9.538   1.576
42352SOL     OW29062   9.431   9.689   0.009
42352SOL    HW129063   9.353   9.635  11.087
42352SOL    HW229064   9.406   9.775  11.074
42353SOL     OW29065  10.721  10.170   1.392
42353SOL    HW129066  10.669  10.230   1.334
42353SOL    HW229067  10.811  10.195   1.368
42354SOL     OW29068   9.359   9.468   0.321
42354SOL    HW129069   9.361   9.554   0.278
42354SOL    HW229070   9.449   9.435   0.302
42355SOL     OW29071  10.510  10.643   0.121
42355SOL    HW129072  10.418  10.620   0.097
42355SOL    HW229073  10.514  10.615   0.214
42356SOL     OW29074   9.934  10.139   1.425
42356SOL    HW129075   9.995  10.213   1.410
42356SOL    HW229076   9.997  10.066   1.441
42357SOL     OW29077  10.803  11.072   0.943
42357SOL    HW129078  10.825   0.044   0.884
42357SOL    HW229079  10.888  11.052   0.983
42358SOL     OW29080  10.062   9.849   1.714
42358SOL    HW129081  10.065   9.897   1.797
42358SOL    HW229082  10.053   9.756   1.740
42359SOL     OW29083  10.785  10.501   1.618
42359SOL    HW129084  10.775  10.501   1.715
42359SOL    HW229085  10.881  10.522   1.608
42360SOL     OW29086  10.996  10.170   1.232
42360SOL    HW129087  11.001  10.096   1.169
42360SOL    HW229088  10.964  10.244   1.175
42361SOL     OW29089  10.532   9.623   0.481
42361SOL    HW129090  10.595   9.549   0.483
42361SOL    HW229091  10.568   9.681   0.551
42362SOL     OW29092   9.901  10.038   0.669
42362SOL    HW129093   9.939  10.126   0.653
42362SOL    HW229094   9.832  10.032   0.601
42363SOL     OW29095  11.058   9.691   1.635
42363SOL    HW129096  11.022   9.753   1.570
42363SOL    HW229097  10.980   9.647   1.671
42364SOL     OW29098  11.055  10.231   1.485
42364SOL    HW129099  11.042  10.326   1.470
42364SOL    HW229100  11.036  10.193   1.396
42365SOL     OW29101  10.190  10.683   0.055
42365SOL    HW129102  10.153  10.666   0.144
42365SOL    HW229103  10.174  10.777   0.044
42366SOL     OW29104  10.190  10.267   0.840
42366SOL    HW129105  10.241  10.195   0.881
42366SOL    HW229106  10.157  10.315   0.917
42367SOL     OW29107  10.405  10.294   0.082
42367SOL    HW129108  10.370  10.307  11.094
42367SOL    HW229109  10.489  10.248   0.063
42368SOL     OW29110   0.059  10.861   0.854
42368SOL    HW129111  11.085  10.850   0.795
42368SOL    HW229112   0.077  10.771   0.883
42369SOL     OW29113   9.566  10.596   1.875
42369SOL    HW129114   9.502  10.546   1.824
42369SOL    HW229115   9.529  10.590   1.964
42370SOL     OW29116   9.397  10.564   0.652
42370SOL    HW129117   9.415  10.522   0.737
42370SOL    HW229118   9.451  10.512   0.591
42371SOL     OW29119  10.007  10.725   1.633
42371SOL    HW129120   9.929  10.670   1.655
42371SOL    HW229121   9.979  10.813   1.663
42372SOL     OW29122   0.001   9.479   1.200
42372SOL    HW129123   0.011   9.396   1.249
42372SOL    HW229124  11.094   9.447   1.110
42373SOL     OW29125   9.756   9.721   0.526
42373SOL    HW129126   9.782   9.646   0.471
42373SOL    HW229127   9.697   9.681   0.593
42374SOL     OW29128  10.988  10.788   1.111
42374SOL    HW129129  10.916  10.765   1.049
42374SOL    HW229130  11.050  10.714   1.106
42375SOL     OW29131   9.648   9.863   1.276
42375SOL    HW129132   9.703   9.798   1.322
42375SOL    HW229133   9.654   9.834   1.182
42376SOL     OW29134  10.133  10.871   0.686
42376SOL    HW129135  10.129  10.956   0.638
42376SOL    HW229136  10.046  10.833   0.668
42377SOL     OW29137  10.729   9.530   1.085
42377SOL    HW129138  10.761   9.453   1.134
42377SOL    HW229139  10.696   9.587   1.157
42378SOL     OW29140  10.335   9.318   1.152
42378SOL    HW129141  10.278   9.242   1.135
42378SOL    HW229142  10.425   9.279   1.142
42379SOL     OW29143  10.107  10.630   0.311
42379SOL    HW129144  10.030  10.572   0.303
42379SOL    HW229145  10.155  10.585   0.382
42380SOL     OW29146   9.917  10.856   1.267
42380SOL    HW129147   9.918  10.951   1.280
42380SOL    HW229148  10.008  10.840   1.236
42381SOL     OW29149  10.656   9.339   0.213
42381SOL    HW129150  10.695   9.310   0.130
42381SOL    HW229151  10.565   9.304   0.206
42382SOL     OW29152  10.629   9.786   0.677
42382SOL    HW129153  10.565   9.859   0.680
42382SOL    HW229154  10.619   9.746   0.765
42383SOL     OW29155  10.898   9.471   0.876
42383SOL    HW129156  10.832   9.486   0.945
42383SOL    HW229157  10.899   9.555   0.831
42384SOL     OW29158   9.358  10.403   0.249
42384SOL    HW129159   9.454  10.396   0.258
42384SOL    HW229160   9.330  10.317   0.286
42385SOL     OW29161   9.548   9.952   1.997
42385SOL    HW129162   9.460   9.927   2.027
42385SOL    HW229163   9.549   9.928   1.903
42386SOL     OW29164   9.538   9.589   2.866
42386SOL    HW129165   9.560   9.565   2.958
42386SOL    HW229166   9.453   9.543   2.852
42387SOL     OW29167   9.314   9.712   2.481
42387SOL    HW129168   9.235   9.738   2.533
42387SOL    HW229169   9.283   9.631   2.438
42388SOL     OW29170  10.904  10.814   2.568
42388SOL    HW129171  10.859  10.793   2.651
42388SOL    HW229172  10.832  10.815   2.503
42389SOL     OW29173  10.453   9.990   2.555
42389SOL    HW129174  10.477  10.082   2.535
42389SOL    HW229175  10.416  10.001   2.644
42390SOL     OW29176  11.088   9.909   2.093
42390SOL    HW129177  11.058   9.915   2.000
42390SOL    HW229178  11.046   9.827   2.122
42391SOL     OW29179  10.093  10.452   2.903
42391SOL    HW129180  10.006  10.484   2.928
42391SOL    HW229181  10.128  10.528   2.853
42392SOL     OW29182  10.177  10.106   3.672
42392SOL    HW129183  10.157  10.169   3.742
42392SOL    HW229184  10.194  10.161   3.594
42393SOL     OW29185  10.008  10.342   2.502
42393SOL    HW129186  10.066  10.309   2.572
42393SOL    HW229187   9.934  10.381   2.552
42394SOL     OW29188  10.030  10.448   3.663
42394SOL    HW129189  10.064  10.533   3.699
42394SOL    HW229190   9.940  10.473   3.636
42395SOL     OW29191   9.637  10.746   2.939
42395SOL    HW129192   9.557  10.710   2.896
42395SOL    HW229193   9.676  10.801   2.868
42396SOL     OW29194  10.784  10.831   3.218
42396SOL    HW129195  10.789  10.927   3.210
42396SOL    HW229196  10.776  10.819   3.314
42397SOL     OW29197   9.745   9.711   3.383
42397SOL    HW129198   9.815   9.643   3.381
42397SOL    HW229199   9.664   9.660   3.368
42398SOL     OW29200  10.473  10.649   3.536
42398SOL    HW129201  10.513  10.655   3.624
42398SOL    HW229202  10.410  10.573   3.548
42399SOL     OW29203   9.578  10.763   2.397
42399SOL    HW129204   9.562  10.856   2.419
42399SOL    HW229205   9.508  10.717   2.447
42400SOL     OW29206   9.592  10.406   2.765
42400SOL    HW129207   9.574  10.326   2.816
42400SOL    HW229208   9.531  10.470   2.806
42401SOL     OW29209   9.881  10.308   1.976
42401SOL    HW129210   9.937  10.350   1.908
42401SOL    HW229211   9.918  10.344   2.059
42402SOL     OW29212  10.904   9.400   3.357
42402SOL    HW129213  10.946   9.451   3.285
42402SOL    HW229214  10.919   9.457   3.434
42403SOL     OW29215   9.424   9.960   2.417
42403SOL    HW129216   9.397   9.866   2.430
42403SOL    HW229217   9.412   9.998   2.506
42404SOL     OW29218   9.373  10.905   1.982
42404SOL    HW129219   9.357  10.810   1.997
42404SOL    HW229220   9.313  10.946   2.046
42405SOL     OW29221  10.998  10.271   2.521
42405SOL    HW129222  11.062  10.203   2.498
42405SOL    HW229223  10.992  10.323   2.440
42406SOL     OW29224   9.408  10.033   3.453
42406SOL    HW129225   9.490  10.079   3.476
42406SOL    HW229226   9.344  10.106   3.452
42407SOL     OW29227   9.910  10.712   2.615
42407SOL    HW129228   9.874  10.622   2.632
42407SOL    HW229229   9.890  10.718   2.520
42408SOL     OW29230  10.599  10.508   3.291
42408SOL    HW129231  10.685  10.463   3.283
42408SOL    HW229232  10.612  10.545   3.380
42409SOL     OW29233  10.144   9.312   2.376
42409SOL    HW129234  10.178   9.401   2.353
42409SOL    HW229235  10.048   9.327   2.375
42410SOL     OW29236   9.504  10.288   3.103
42410SOL    HW129237   9.586  10.237   3.091
42410SOL    HW229238   9.435  10.231   3.066
42411SOL     OW29239  10.834  10.321   2.073
42411SOL    HW129240  10.768  10.261   2.114
42411SOL    HW229241  10.915  10.298   2.119
42412SOL     OW29242  10.495  11.097   3.495
42412SOL    HW129243  10.494   0.069   3.431
42412SOL    HW229244  10.519  11.022   3.438
42413SOL     OW29245   9.657   9.544   3.639
42413SOL    HW129246   9.710   9.624   3.646
42413SOL    HW229247   9.576   9.570   3.686
42414SOL     OW29248  10.769  10.736   2.809
42414SOL    HW129249  10.710  10.756   2.884
42414SOL    HW229250  10.736  10.649   2.782
42415SOL     OW29251   9.903  10.018   2.120
42415SOL    HW129252   9.908  10.105   2.078
42415SOL    HW229253   9.831  10.031   2.184
42416SOL     OW29254  10.576   9.659   2.777
42416SOL    HW129255  10.486   9.624   2.792
42416SOL    HW229256  10.625   9.616   2.850
42417SOL     OW29257  10.874  10.953   2.156
42417SOL    HW129258  10.925  11.034   2.171
42417SOL    HW229259  10.854  10.961   2.061
42418SOL     OW29260  10.093   9.944   3.333
42418SOL    HW129261  10.081   9.911   3.425
42418SOL    HW229262  10.047   9.877   3.280
42419SOL     OW29263  10.695   9.789   3.539
42419SOL    HW129264  10.705   9.845   3.618
42419SOL    HW229265  10.751   9.713   3.561
42420SOL     OW29266  10.267  10.222   3.441
42420SOL    HW129267  10.302  10.135   3.412
42420SOL    HW229268  10.215  10.249   3.362
42421SOL     OW29269  10.313   9.702   3.110
42421SOL    HW129270  10.225   9.735   3.131
42421SOL    HW229271  10.302   9.664   3.021
42422SOL     OW29272  10.347   9.991   2.283
42422SOL    HW129273  10.360   9.990   2.379
42422SOL    HW229274  10.262   9.944   2.274
42423SOL     OW29275   9.409  10.117   2.650
42423SOL    HW129276   9.481  10.121   2.716
42423SOL    HW229277   9.356  10.194   2.675
42424SOL     OW29278   9.386   0.030   3.437
42424SOL    HW129279   9.422   0.012   3.526
42424SOL    HW229280   9.294   0.054   3.455
42425SOL     OW29281  10.204   9.673   2.071
42425SOL    HW129282  10.235   9.740   2.008
42425SOL    HW229283  10.228   9.592   2.024
42426SOL     OW29284  11.024   9.897   3.695
42426SOL    HW129285  10.984   9.963   3.635
42426SOL    HW229286  11.073   9.841   3.633
42427SOL     OW29287  10.677  10.456   2.426
42427SOL    HW129288  10.742  10.460   2.356
42427SOL    HW229289  10.605  10.507   2.387
42428SOL     OW29290   9.848   9.494   2.747
42428SOL    HW129291   9.853   9.519   2.841
42428SOL    HW229292   9.845   9.580   2.703
42429SOL     OW29293  10.333  10.762   2.359
42429SOL    HW129294  10.284  10.815   2.296
42429SOL    HW229295  10.315  10.804   2.444
42430SOL     OW29296   9.655   0.008   2.731
42430SOL    HW129297   9.703  11.035   2.768
42430SOL    HW229298   9.719   0.082   2.741
42431SOL     OW29299  11.081  10.382   2.752
42431SOL    HW129300  11.046  10.357   2.664
42431SOL    HW229301  11.037  10.319   2.811
42432SOL     OW29302  10.520  10.864   3.360
42432SOL    HW129303  10.536  10.790   3.419
42432SOL    HW229304  10.466  10.824   3.290
42433SOL     OW29305   9.610  10.250   2.108
42433SOL    HW129306   9.697  10.267   2.070
42433SOL    HW229307   9.577  10.181   2.047
42434SOL     OW29308  10.774  10.091   2.589
42434SOL    HW129309  10.778  10.024   2.659
42434SOL    HW229310  10.865  10.123   2.582
42435SOL     OW29311   9.789  10.554   3.580
42435SOL    HW129312   9.740  10.565   3.497
42435SOL    HW229313   9.717  10.562   3.646
42436SOL     OW29314  10.391  11.061   2.114
42436SOL    HW129315  10.424  10.983   2.159
42436SOL    HW229316  10.409  11.041   2.021
42437SOL     OW29317   9.481   9.608   3.360
42437SOL    HW129318   9.401   9.659   3.381
42437SOL    HW229319   9.469   9.527   3.412
42438SOL     OW29320  10.724   9.437   2.306
42438SOL    HW129321  10.708   9.399   2.218
42438SOL    HW229322  10.819   9.430   2.318
42439SOL     OW29323   9.710  10.013   2.328
42439SOL    HW129324   9.732   9.919   2.347
42439SOL    HW229325   9.614  10.010   2.339
42440SOL     OW29326  10.845   9.553   3.595
42440SOL    HW129327  10.833   9.563   3.693
42440SOL    HW229328  10.789   9.475   3.580
42441SOL     OW29329   9.938   9.444   1.954
42441SOL    HW129330  10.010   9.385   1.975
42441SOL    HW229331   9.890   9.393   1.885
42442SOL     OW29332  10.071   9.573   3.594
42442SOL    HW129333  10.151   9.516   3.604
42442SOL    HW229334  10.022   9.554   3.675
42443SOL     OW29335  10.180  10.817   3.036
42443SOL    HW129336  10.178  10.785   2.944
42443SOL    HW229337  10.256  10.770   3.074
42444SOL     OW29338  10.646   9.916   3.299
42444SOL    HW129339  10.671   9.861   3.377
42444SOL    HW229340  10.671  10.004   3.328
42445SOL     OW29341  10.131  10.702   2.790
42445SOL    HW129342  10.220  10.692   2.749
42445SOL    HW229343  10.071  10.700   2.714
42446SOL     OW29344  10.245   9.838   2.761
42446SOL    HW129345  10.222   9.828   2.666
42446SOL    HW229346  10.253   9.745   2.786
42447SOL     OW29347   9.867   9.364   2.353
42447SOL    HW129348   9.787   9.369   2.409
42447SOL    HW229349   9.854   9.441   2.294
42448SOL     OW29350  10.744  10.491   1.879
42448SOL    HW129351  10.785  10.426   1.940
42448SOL    HW229352  10.668  10.517   1.932
42449SOL     OW29353   9.585   9.358   2.061
42449SOL    HW129354   9.642   9.425   2.021
42449SOL    HW229355   9.650   9.294   2.096
42450SOL     OW29356  10.243   9.560   2.336
42450SOL    HW129357  10.222   9.612   2.256
42450SOL    HW229358  10.338   9.579   2.347
42451SOL     OW29359  10.365   9.988   3.327
42451SOL    HW129360  10.295   9.922   3.339
42451SOL    HW229361  10.446   9.936   3.333
42452SOL     OW29362  10.541  10.866   2.665
42452SOL    HW129363  10.500  10.954   2.671
42452SOL    HW229364  10.634  10.884   2.684
42453SOL     OW29365   9.794  10.473   2.596
42453SOL    HW129366   9.723  10.443   2.657
42453SOL    HW229367   9.753  10.453   2.509
42454SOL     OW29368  10.334   9.852   1.890
42454SOL    HW129369  10.292   9.932   1.855
42454SOL    HW229370  10.416   9.884   1.929
42455SOL     OW29371   9.376   9.855   3.256
42455SOL    HW129372   9.470   9.835   3.241
42455SOL    HW229373   9.382   9.932   3.317
42456SOL     OW29374   9.872   9.543   3.028
42456SOL    HW129375   9.916   9.467   3.067
42456SOL    HW229376   9.781   9.535   3.064
42457SOL     OW29377  10.188   9.773   2.513
42457SOL    HW129378  10.145   9.813   2.436
42457SOL    HW229379  10.207   9.684   2.481
42458SOL     OW29380  10.298   9.408   2.632
42458SOL    HW129381  10.278   9.389   2.539
42458SOL    HW229382  10.296   9.319   2.672
42459SOL     OW29383  10.715  10.472   2.747
42459SOL    HW129384  10.662  10.392   2.735
42459SOL    HW229385  10.733  10.494   2.654
42460SOL     OW29386  10.770   9.914   2.872
42460SOL    HW129387  10.718   9.833   2.862
42460SOL    HW229388  10.859   9.882   2.889
42461SOL     OW29389  11.092  10.132   2.253
42461SOL    HW129390   0.055  10.087   2.310
42461SOL    HW229391  11.098  10.074   2.174
42462SOL     OW29392   9.802  10.738   2.024
42462SOL    HW129393   9.726  10.710   2.079
42462SOL    HW229394   9.778  10.696   1.941
42463SOL     OW29395  10.698   9.905   1.938
42463SOL    HW129396  10.647   9.862   2.010
42463SOL    HW229397  10.789   9.887   1.963
42464SOL     OW29398   9.820   9.546   2.172
42464SOL    HW129399   9.869   9.512   2.094
42464SOL    HW229400   9.786   9.630   2.135
42465SOL     OW29401  11.050  10.556   3.482
42465SOL    HW129402   0.031  10.520   3.444
42465SOL    HW229403  11.084  10.611   3.554
42466SOL     OW29404  10.387  10.666   3.204
42466SOL    HW129405  10.301  10.638   3.241
42466SOL    HW229406  10.449  10.604   3.248
42467SOL     OW29407  10.906  10.899   3.492
42467SOL    HW129408  10.913  10.969   3.425
42467SOL    HW229409  10.996  10.868   3.498
42468SOL     OW29410  10.461  10.502   2.963
42468SOL    HW129411  10.384  10.514   3.019
42468SOL    HW229412  10.435  10.552   2.883
42469SOL     OW29413  10.895  10.379   2.960
42469SOL    HW129414  10.921  10.444   3.028
42469SOL    HW229415  10.893  10.435   2.880
42470SOL     OW29416  10.257   9.349   3.261
42470SOL    HW129417  10.278   9.356   3.166
42470SOL    HW229418  10.318   9.414   3.300
42471SOL     OW29419  10.308  10.444   3.603
42471SOL    HW129420  10.215  10.457   3.630
42471SOL    HW229421  10.301  10.367   3.544
42472SOL     OW29422  10.003  10.386   2.215
42472SOL    HW129423   9.996  10.360   2.308
42472SOL    HW229424  10.080  10.332   2.187
42473SOL     OW29425   9.733  10.122   3.119
42473SOL    HW129426   9.798  10.124   3.192
42473SOL    HW229427   9.691  10.034   3.130
42474SOL     OW29428  10.602   9.695   3.143
42474SOL    HW129429  10.629   9.777   3.189
42474SOL    HW229430  10.508   9.712   3.124
42475SOL     OW29431   9.349  10.884   3.216
42475SOL    HW129432   9.312  10.956   3.163
42475SOL    HW229433   9.443  10.907   3.224
42476SOL     OW29434   9.677  10.395   2.359
42476SOL    HW129435   9.684  10.464   2.292
42476SOL    HW229436   9.657  10.316   2.306
42477SOL     OW29437   9.844   9.850   2.706
42477SOL    HW129438   9.868   9.909   2.631
42477SOL    HW229439   9.913   9.870   2.769
42478SOL     OW29440  10.552  10.658   2.240
42478SOL    HW129441  10.612  10.723   2.281
42478SOL    HW229442  10.468  10.680   2.285
42479SOL     OW29443  10.605  10.758   3.032
42479SOL    HW129444  10.665  10.779   3.106
42479SOL    HW229445  10.541  10.698   3.072
42480SOL     OW29446  10.892   9.952   2.333
42480SOL    HW129447  10.831  10.008   2.384
42480SOL    HW229448  10.960  10.015   2.304
42481SOL     OW29449   9.627  10.850   3.196
42481SOL    HW129450   9.618  10.845   3.099
42481SOL    HW229451   9.709  10.899   3.209
42482SOL     OW29452   9.729  10.041   3.478
42482SOL    HW129453   9.793  10.082   3.417
42482SOL    HW229454   9.749   9.947   3.467
42483SOL     OW29455  10.914  10.067   3.529
42483SOL    HW129456  10.828  10.112   3.534
42483SOL    HW229457  10.961  10.126   3.466
42484SOL     OW29458  10.293   9.429   3.605
42484SOL    HW129459  10.350   9.505   3.587
42484SOL    HW229460  10.343   9.358   3.562
42485SOL     OW29461   9.821   9.324   3.613
42485SOL    HW129462   9.775   9.271   3.544
42485SOL    HW229463   9.760   9.399   3.621
42486SOL     OW29464   9.897  10.196   2.904
42486SOL    HW129465   9.941  10.277   2.929
42486SOL    HW229466   9.843  10.173   2.982
42487SOL     OW29467  10.664  10.169   2.923
42487SOL    HW129468  10.587  10.134   2.877
42487SOL    HW229469  10.727  10.095   2.910
42488SOL     OW29470  10.530   9.827   2.141
42488SOL    HW129471  10.526   9.752   2.202
42488SOL    HW229472  10.466   9.889   2.180
42489SOL     OW29473   9.621   9.513   3.117
42489SOL    HW129474   9.569   9.538   3.195
42489SOL    HW229475   9.595   9.419   3.107
42490SOL     OW29476   9.370  10.616   3.141
42490SOL    HW129477   9.375  10.562   3.220
42490SOL    HW229478   9.341  10.703   3.175
42491SOL     OW29479  10.049   9.964   2.922
42491SOL    HW129480  10.113   9.939   2.853
42491SOL    HW229481  10.006  10.045   2.888
42492SOL     OW29482   9.619   9.377   2.466
42492SOL    HW129483   9.588   9.467   2.485
42492SOL    HW229484   9.617   9.335   2.554
42493SOL     OW29485  10.942   9.695   2.210
42493SOL    HW129486  10.954   9.632   2.281
42493SOL    HW229487  10.913   9.776   2.257
42494SOL     OW29488  10.376  10.062   2.824
42494SOL    HW129489  10.356  10.075   2.918
42494SOL    HW229490  10.337   9.973   2.809
42495SOL     OW29491  10.295  10.852   3.574
42495SOL    HW129492  10.324  10.916   3.508
42495SOL    HW229493  10.340  10.771   3.544
42496SOL     OW29494   9.651  10.193   3.677
42496SOL    HW129495   9.733  10.221   3.719
42496SOL    HW229496   9.683  10.129   3.611
42497SOL     OW29497  10.803   9.576   1.997
42497SOL    HW129498  10.743   9.517   2.044
42497SOL    HW229499  10.857   9.616   2.068
42498SOL     OW29500  10.599  10.157   1.894
42498SOL    HW129501  10.642  10.071   1.909
42498SOL    HW229502  10.626  10.176   1.802
42499SOL     OW29503  10.379  10.638   2.730
42499SOL    HW129504  10.377  10.570   2.660
42499SOL    HW229505  10.449  10.699   2.700
42500SOL     OW29506   9.597  10.125   2.854
42500SOL    HW129507   9.690  10.140   2.830
42500SOL    HW229508   9.600  10.031   2.879
42501SOL     OW29509   9.629   9.845   2.864
42501SOL    HW129510   9.599   9.754   2.849
42501SOL    HW229511   9.700   9.852   2.796
42502SOL     OW29512  10.446   9.680   3.537
42502SOL    HW129513  10.400   9.731   3.608
42502SOL    HW229514  10.536   9.719   3.541
42503SOL     OW29515  10.475   9.503   3.336
42503SOL    HW129516  10.466   9.571   3.406
42503SOL    HW229517  10.513   9.556   3.264
42504SOL     OW29518   9.323  10.634   2.040
42504SOL    HW129519   9.230  10.654   2.015
42504SOL    HW229520   9.315  10.545   2.078
42505SOL     OW29521   9.826  10.906   2.798
42505SOL    HW129522   9.898  10.971   2.801
42505SOL    HW229523   9.860  10.837   2.738
42506SOL     OW29524  10.294  10.108   3.093
42506SOL    HW129525  10.335  10.072   3.174
42506SOL    HW229526  10.206  10.067   3.098
42507SOL     OW29527   9.339   9.832   2.968
42507SOL    HW129528   9.418   9.814   2.915
42507SOL    HW229529   9.377   9.846   3.056
42508SOL     OW29530   9.531   9.829   3.584
42508SOL    HW129531   9.576   9.777   3.516
42508SOL    HW229532   9.476   9.890   3.532
42509SOL     OW29533  10.688  10.220   3.497
42509SOL    HW129534  10.707  10.309   3.531
42509SOL    HW229535  10.665  10.240   3.405
42510SOL     OW29536  10.111   9.854   2.258
42510SOL    HW129537  10.128   9.795   2.182
42510SOL    HW229538  10.038   9.908   2.226
42511SOL     OW29539   9.535  10.836   3.599
42511SOL    HW129540   9.517  10.910   3.659
42511SOL    HW229541   9.549  10.762   3.660
42512SOL     OW29542   9.993   9.792   3.129
42512SOL    HW129543   9.948   9.714   3.093
42512SOL    HW229544   9.993   9.856   3.055
42513SOL     OW29545   9.752   9.780   2.060
42513SOL    HW129546   9.820   9.848   2.067
42513SOL    HW229547   9.672   9.835   2.049
42514SOL     OW29548   9.456  10.433   3.333
42514SOL    HW129549   9.460  10.378   3.414
42514SOL    HW229550   9.463  10.368   3.260
42515SOL     OW29551  10.631  10.165   2.174
42515SOL    HW129552  10.560  10.120   2.220
42515SOL    HW229553  10.600  10.166   2.082
42516SOL     OW29554  11.038  11.030   3.007
42516SOL    HW129555   0.007  11.058   2.945
42516SOL    HW229556  11.027  10.935   2.981
42517SOL     OW29557  10.564  11.034   2.938
42517SOL    HW129558  10.645  11.058   2.891
42517SOL    HW229559  10.583  10.944   2.967
42518SOL     OW29560   9.419  10.574   2.879
42518SOL    HW129561   9.388  10.587   2.971
42518SOL    HW229562   9.347  10.520   2.842
42519SOL     OW29563   9.991  10.963   3.593
42519SOL    HW129564   9.923  11.033   3.583
42519SOL    HW229565  10.072  11.011   3.574
42520SOL     OW29566  11.045   9.446   2.397
42520SOL    HW129567  11.097   9.441   2.314
42520SOL    HW229568  11.044   9.354   2.428
42521SOL     OW29569  10.693  10.880   2.346
42521SOL    HW129570  10.763  10.890   2.279
42521SOL    HW229571  10.678  10.972   2.369
42522SOL     OW29572   9.480  11.099   3.693
42522SOL    HW129573   9.416  11.041   3.738
42522SOL    HW229574   9.523   0.039   3.770
42523SOL     OW29575  10.560  10.242   2.542
42523SOL    HW129576  10.634  10.181   2.562
42523SOL    HW229577  10.605  10.307   2.486
42524SOL     OW29578  10.134  10.588   3.291
42524SOL    HW129579  10.109  10.615   3.382
42524SOL    HW229580  10.063  10.633   3.243
42525SOL     OW29581   9.973  10.935   2.008
42525SOL    HW129582   9.984  10.934   1.912
42525SOL    HW229583   9.913  10.858   2.021
42526SOL     OW29584   9.560   9.632   2.563
42526SOL    HW129585   9.473   9.673   2.545
42526SOL    HW229586   9.567   9.637   2.659
42527SOL     OW29587  10.509  10.927   1.890
42527SOL    HW129588  10.497  10.837   1.923
42527SOL    HW229589  10.450  10.933   1.813
42528SOL     OW29590  10.138  10.321   3.218
42528SOL    HW129591  10.202  10.302   3.148
42528SOL    HW229592  10.151  10.415   3.237
42529SOL     OW29593  10.221  10.247   2.132
42529SOL    HW129594  10.301  10.277   2.084
42529SOL    HW229595  10.252  10.165   2.172
42530SOL     OW29596  10.804  10.983   1.897
42530SOL    HW129597  10.722  10.933   1.889
42530SOL    HW229598  10.853  10.956   1.818
42531SOL     OW29599   9.667  10.590   3.333
42531SOL    HW129600   9.621  10.674   3.347
42531SOL    HW229601   9.592  10.526   3.338
42532SOL     OW29602  10.877  10.584   3.149
42532SOL    HW129603  10.964  10.587   3.193
42532SOL    HW229604  10.839  10.670   3.177
42533SOL     OW29605  10.359  10.421   2.574
42533SOL    HW129606  10.290  10.365   2.614
42533SOL    HW229607  10.426  10.354   2.552
42534SOL     OW29608  10.334   9.546   2.855
42534SOL    HW129609  10.310   9.508   2.767
42534SOL    HW229610  10.347   9.465   2.908
42535SOL     OW29611   9.933  10.817   2.339
42535SOL    HW129612   9.948  10.770   2.255
42535SOL    HW229613   9.844  10.852   2.326
42536SOL     OW29614   9.577  10.677   2.151
42536SOL    HW129615   9.482  10.681   2.129
42536SOL    HW229616   9.577  10.705   2.245
42537SOL     OW29617   9.443  10.322   3.573
42537SOL    HW129618   9.367  10.309   3.633
42537SOL    HW229619   9.517  10.279   3.622
42538SOL     OW29620   9.980   9.498   3.347
42538SOL    HW129621  10.065   9.508   3.303
42538SOL    HW229622   9.999   9.529   3.438
42539SOL     OW29623   9.406   9.656   1.898
42539SOL    HW129624   9.318   9.642   1.860
42539SOL    HW229625   9.438   9.727   1.841
42540SOL     OW29626  10.713  10.215   3.213
42540SOL    HW129627  10.697  10.137   3.157
42540SOL    HW229628  10.805  10.206   3.239
42541SOL     OW29629   9.355   9.475   2.150
42541SOL    HW129630   9.352   9.553   2.093
42541SOL    HW229631   9.441   9.435   2.123
42542SOL     OW29632  10.477  10.649   1.974
42542SOL    HW129633  10.407  10.583   1.988
42542SOL    HW229634  10.515  10.652   2.064
42543SOL     OW29635   9.930  10.148   3.294
42543SOL    HW129636   9.993  10.221   3.281
42543SOL    HW229637   9.993  10.074   3.307
42544SOL     OW29638  10.818  11.087   2.806
42544SOL    HW129639  10.855   0.049   2.744
42544SOL    HW229640  10.894  11.061   2.859
42545SOL     OW29641  10.046   9.862   3.580
42545SOL    HW129642  10.074   9.917   3.655
42545SOL    HW229643  10.044   9.772   3.615
42546SOL     OW29644  10.789  10.496   3.482
42546SOL    HW129645  10.773  10.499   3.579
42546SOL    HW229646  10.884  10.519   3.478
42547SOL     OW29647  11.014  10.169   3.087
42547SOL    HW129648  11.022  10.085   3.037
42547SOL    HW229649  10.969  10.229   3.025
42548SOL     OW29650  10.509   9.634   2.340
42548SOL    HW129651  10.574   9.565   2.320
42548SOL    HW229652  10.556   9.684   2.411
42549SOL     OW29653   9.901  10.046   2.525
42549SOL    HW129654   9.938  10.133   2.506
42549SOL    HW229655   9.825  10.043   2.464
42550SOL     OW29656  11.060   9.686   3.495
42550SOL    HW129657  11.025   9.744   3.425
42550SOL    HW229658  10.981   9.642   3.531
42551SOL     OW29659  11.017  10.222   3.349
42551SOL    HW129660  11.049  10.313   3.344
42551SOL    HW229661  11.027  10.190   3.257
42552SOL     OW29662  10.166  10.659   1.901
42552SOL    HW129663  10.148  10.674   1.995
42552SOL    HW229664  10.185  10.748   1.867
42553SOL     OW29665  10.193  10.254   2.701
42553SOL    HW129666  10.253  10.186   2.739
42553SOL    HW229667  10.164  10.303   2.780
42554SOL     OW29668  10.420  10.335   1.968
42554SOL    HW129669  10.379  10.356   1.882
42554SOL    HW229670  10.488  10.270   1.941
42555SOL     OW29671   0.068  10.857   2.707
42555SOL    HW129672  11.089  10.839   2.656
42555SOL    HW229673   0.081  10.775   2.757
42556SOL     OW29674   9.567  10.612   3.738
42556SOL    HW129675   9.487  10.565   3.711
42556SOL    HW229676   9.554  10.613   3.835
42557SOL     OW29677   9.405  10.574   2.514
42557SOL    HW129678   9.402  10.523   2.597
42557SOL    HW229679   9.444  10.510   2.453
42558SOL     OW29680   9.990  10.711   3.480
42558SOL    HW129681   9.926  10.656   3.528
42558SOL    HW229682   9.989  10.794   3.532
42559SOL     OW29683  11.096   9.468   3.071
42559SOL    HW129684  11.087   9.373   3.085
42559SOL    HW229685  -0.000   9.475   2.976
42560SOL     OW29686   9.746   9.753   2.384
42560SOL    HW129687   9.783   9.683   2.329
42560SOL    HW229688   9.698   9.704   2.454
42561SOL     OW29689  11.006  10.777   2.941
42561SOL    HW129690  10.922  10.759   2.895
42561SOL    HW229691  11.015  10.704   3.004
42562SOL     OW29692   9.645   9.851   3.146
42562SOL    HW129693   9.708   9.799   3.198
42562SOL    HW229694   9.658   9.818   3.055
42563SOL     OW29695  10.104  10.911   2.520
42563SOL    HW129696  10.072  10.869   2.438
42563SOL    HW229697  10.036  10.879   2.580
42564SOL     OW29698  10.727   9.532   2.964
42564SOL    HW129699  10.773   9.458   3.005
42564SOL    HW229700  10.697   9.584   3.042
42565SOL     OW29701  10.329   9.303   3.001
42565SOL    HW129702  10.288   9.256   2.927
42565SOL    HW229703  10.422   9.271   2.992
42566SOL     OW29704  10.116  10.646   2.173
42566SOL    HW129705  10.055  10.570   2.170
42566SOL    HW229706  10.180  10.614   2.238
42567SOL     OW29707   9.910  10.827   3.134
42567SOL    HW129708   9.922  10.905   3.190
42567SOL    HW229709   9.997  10.826   3.090
42568SOL     OW29710  10.654   9.349   2.066
42568SOL    HW129711  10.661   9.312   1.978
42568SOL    HW229712  10.566   9.315   2.093
42569SOL     OW29713  10.632   9.777   2.540
42569SOL    HW129714  10.567   9.850   2.535
42569SOL    HW229715  10.611   9.734   2.624
42570SOL     OW29716  10.910   9.512   2.761
42570SOL    HW129717  10.833   9.513   2.821
42570SOL    HW229718  10.883   9.575   2.693
42571SOL     OW29719   9.352  10.381   2.177
42571SOL    HW129720   9.444  10.363   2.155
42571SOL    HW229721   9.317  10.290   2.182
42572SOL     OW29722   9.537   9.947   3.864
42572SOL    HW129723   9.443   9.942   3.886
42572SOL    HW229724   9.540   9.930   3.769
42573SOL     OW29725   9.490   9.568   4.718
42573SOL    HW129726   9.515   9.593   4.809
42573SOL    HW229727   9.482   9.473   4.730
42574SOL     OW29728   9.314   9.686   4.386
42574SOL    HW129729   9.231   9.733   4.410
42574SOL    HW229730   9.286   9.633   4.309
42575SOL     OW29731   9.860  10.584   4.895
42575SOL    HW129732   9.774  10.591   4.851
42575SOL    HW229733   9.864  10.668   4.943
42576SOL     OW29734  10.892  10.815   4.433
42576SOL    HW129735  10.846  10.794   4.516
42576SOL    HW229736  10.821  10.816   4.367
42577SOL     OW29737  10.456   9.988   4.418
42577SOL    HW129738  10.483  10.078   4.393
42577SOL    HW229739  10.427  10.005   4.509
42578SOL     OW29740  11.075   9.908   3.955
42578SOL    HW129741  11.051   9.910   3.860
42578SOL    HW229742  11.034   9.825   3.986
42579SOL     OW29743  10.040  10.460   4.730
42579SOL    HW129744   9.975  10.498   4.792
42579SOL    HW229745  10.084  10.540   4.698
42580SOL     OW29746  10.187  10.097   5.536
42580SOL    HW129747  10.160  10.162   5.602
42580SOL    HW229748  10.198  10.150   5.455
42581SOL     OW29749  10.002  10.339   4.378
42581SOL    HW129750  10.061  10.311   4.451
42581SOL    HW229751   9.931  10.386   4.426
42582SOL     OW29752  10.024  10.446   5.522
42582SOL    HW129753  10.063  10.531   5.550
42582SOL    HW229754   9.936  10.474   5.490
42583SOL     OW29755   9.638  10.753   4.797
42583SOL    HW129756   9.563  10.721   4.745
42583SOL    HW229757   9.690  10.806   4.734
42584SOL     OW29758  10.783  10.830   5.085
42584SOL    HW129759  10.798  10.924   5.101
42584SOL    HW229760  10.727  10.806   5.161
42585SOL     OW29761   9.747   9.701   5.239
42585SOL    HW129762   9.816   9.633   5.229
42585SOL    HW229763   9.665   9.651   5.227
42586SOL     OW29764  10.462  10.652   5.408
42586SOL    HW129765  10.504  10.643   5.494
42586SOL    HW229766  10.405  10.572   5.406
42587SOL     OW29767   9.532  10.776   4.248
42587SOL    HW129768   9.564  10.854   4.295
42587SOL    HW229769   9.481  10.728   4.315
42588SOL     OW29770   9.580  10.403   4.619
42588SOL    HW129771   9.576  10.330   4.682
42588SOL    HW229772   9.527  10.471   4.665
42589SOL     OW29773   9.872  10.306   3.834
42589SOL    HW129774   9.932  10.339   3.765
42589SOL    HW229775   9.915  10.344   3.914
42590SOL     OW29776  10.942   9.375   5.228
42590SOL    HW129777  10.956   9.436   5.154
42590SOL    HW229778  10.927   9.436   5.302
42591SOL     OW29779   9.427   9.970   4.291
42591SOL    HW129780   9.398   9.881   4.315
42591SOL    HW229781   9.424  10.017   4.377
42592SOL     OW29782   9.364  10.902   3.844
42592SOL    HW129783   9.347  10.807   3.858
42592SOL    HW229784   9.312  10.943   3.914
42593SOL     OW29785  10.996  10.275   4.360
42593SOL    HW129786  11.063  10.205   4.359
42593SOL    HW229787  10.997  10.309   4.270
42594SOL     OW29788   9.437  10.042   5.302
42594SOL    HW129789   9.532  10.062   5.302
42594SOL    HW229790   9.401  10.123   5.340
42595SOL     OW29791   9.912  10.710   4.485
42595SOL    HW129792   9.871  10.621   4.492
42595SOL    HW229793   9.904  10.726   4.389
42596SOL     OW29794  10.598  10.545   5.159
42596SOL    HW129795  10.624  10.481   5.091
42596SOL    HW229796  10.666  10.529   5.228
42597SOL     OW29797  10.132   9.315   4.217
42597SOL    HW129798  10.167   9.406   4.208
42597SOL    HW229799  10.036   9.331   4.222
42598SOL     OW29800   9.494  10.284   4.969
42598SOL    HW129801   9.579  10.237   4.958
42598SOL    HW229802   9.428  10.224   4.933
42599SOL     OW29803  10.836  10.317   3.927
42599SOL    HW129804  10.763  10.272   3.975
42599SOL    HW229805  10.912  10.298   3.983
42600SOL     OW29806  10.498   0.004   5.352
42600SOL    HW129807  10.499   0.078   5.288
42600SOL    HW229808  10.517  11.029   5.295
42601SOL     OW29809   9.648   9.544   5.496
42601SOL    HW129810   9.709   9.613   5.524
42601SOL    HW229811   9.566   9.572   5.542
42602SOL     OW29812  10.765  10.743   4.669
42602SOL    HW129813  10.701  10.756   4.742
42602SOL    HW229814  10.748  10.651   4.644
42603SOL     OW29815   9.906  10.017   3.978
42603SOL    HW129816   9.913  10.105   3.940
42603SOL    HW229817   9.833  10.029   4.042
42604SOL     OW29818  10.594   9.646   4.631
42604SOL    HW129819  10.502   9.623   4.651
42604SOL    HW229820  10.641   9.598   4.702
42605SOL     OW29821  10.887  10.951   4.021
42605SOL    HW129822  10.915  11.042   4.038
42605SOL    HW229823  10.864  10.954   3.927
42606SOL     OW29824  10.106   9.927   5.199
42606SOL    HW129825  10.093   9.893   5.290
42606SOL    HW229826  10.049   9.869   5.145
42607SOL     OW29827  10.696   9.789   5.404
42607SOL    HW129828  10.693   9.856   5.475
42607SOL    HW229829  10.754   9.722   5.443
42608SOL     OW29830  10.260  10.217   5.301
42608SOL    HW129831  10.297  10.131   5.271
42608SOL    HW229832  10.217  10.249   5.219
42609SOL     OW29833  10.322   9.695   4.971
42609SOL    HW129834  10.238   9.719   5.013
42609SOL    HW229835  10.295   9.665   4.883
42610SOL     OW29836  10.340  10.018   4.128
42610SOL    HW129837  10.361  10.020   4.222
42610SOL    HW229838  10.257   9.966   4.128
42611SOL     OW29839   9.403  10.124   4.519
42611SOL    HW129840   9.475  10.127   4.586
42611SOL    HW229841   9.361  10.210   4.529
42612SOL     OW29842   9.385   0.056   5.309
42612SOL    HW129843   9.421   0.026   5.396
42612SOL    HW229844   9.290   0.040   5.319
42613SOL     OW29845  10.201   9.688   3.924
42613SOL    HW129846  10.233   9.747   3.854
42613SOL    HW229847  10.240   9.604   3.898
42614SOL     OW29848  11.028   9.891   5.556
42614SOL    HW129849  10.991   9.966   5.504
42614SOL    HW229850  11.074   9.841   5.486
42615SOL     OW29851  10.681  10.459   4.300
42615SOL    HW129852  10.736  10.466   4.220
42615SOL    HW229853  10.608  10.518   4.277
42616SOL     OW29854   9.852   9.517   4.620
42616SOL    HW129855   9.860   9.529   4.717
42616SOL    HW229856   9.853   9.608   4.587
42617SOL     OW29857  10.324  10.760   4.218
42617SOL    HW129858  10.273  10.813   4.157
42617SOL    HW229859  10.288  10.788   4.304
42618SOL     OW29860   9.649  11.101   4.615
42618SOL    HW129861   9.708  11.026   4.635
42618SOL    HW229862   9.711   0.076   4.613
42619SOL     OW29863  11.088  10.364   4.607
42619SOL    HW129864  11.031  10.347   4.530
42619SOL    HW229865  11.029  10.355   4.684
42620SOL     OW29866  10.529  10.865   5.220
42620SOL    HW129867  10.534  10.787   5.279
42620SOL    HW229868  10.470  10.830   5.151
42621SOL     OW29869   9.618  10.259   3.976
42621SOL    HW129870   9.705  10.279   3.937
42621SOL    HW229871   9.588  10.186   3.919
42622SOL     OW29872  10.780  10.061   4.446
42622SOL    HW129873  10.773  10.011   4.529
42622SOL    HW229874  10.858  10.116   4.458
42623SOL     OW29875   9.785  10.559   5.444
42623SOL    HW129876   9.735  10.569   5.360
42623SOL    HW229877   9.712  10.564   5.509
42624SOL     OW29878  10.414  11.087   3.971
42624SOL    HW129879  10.351  11.045   4.031
42624SOL    HW229880  10.410  11.033   3.891
42625SOL     OW29881   9.475   9.600   5.229
42625SOL    HW129882   9.394   9.633   5.273
42625SOL    HW229883   9.496   9.523   5.284
42626SOL     OW29884  10.722   9.435   4.175
42626SOL    HW129885  10.705   9.398   4.086
42626SOL    HW229886  10.817   9.426   4.185
42627SOL     OW29887   9.704  10.015   4.180
42627SOL    HW129888   9.724   9.923   4.209
42627SOL    HW229889   9.608  10.016   4.191
42628SOL     OW29890  10.854   9.525   5.463
42628SOL    HW129891  10.841   9.545   5.559
42628SOL    HW229892  10.779   9.468   5.446
42629SOL     OW29893   9.937   9.452   3.824
42629SOL    HW129894  10.014   9.402   3.854
42629SOL    HW229895   9.897   9.391   3.759
42630SOL     OW29896  10.078   9.568   5.469
42630SOL    HW129897  10.156   9.510   5.477
42630SOL    HW229898  10.025   9.544   5.546
42631SOL     OW29899  10.191  10.823   4.901
42631SOL    HW129900  10.175  10.786   4.812
42631SOL    HW229901  10.262  10.767   4.937
42632SOL     OW29902  10.627   9.906   5.155
42632SOL    HW129903  10.667   9.867   5.235
42632SOL    HW229904  10.667   9.995   5.150
42633SOL     OW29905  10.137  10.709   4.661
42633SOL    HW129906  10.223  10.699   4.615
42633SOL    HW229907  10.074  10.714   4.588
42634SOL     OW29908  10.243   9.831   4.631
42634SOL    HW129909  10.219   9.825   4.535
42634SOL    HW229910  10.256   9.738   4.651
42635SOL     OW29911   9.860   9.362   4.221
42635SOL    HW129912   9.778   9.365   4.274
42635SOL    HW229913   9.849   9.443   4.166
42636SOL     OW29914  10.758  10.496   3.742
42636SOL    HW129915  10.786  10.430   3.810
42636SOL    HW229916  10.680  10.535   3.785
42637SOL     OW29917   9.581   9.365   3.929
42637SOL    HW129918   9.639   9.437   3.899
42637SOL    HW229919   9.645   9.299   3.960
42638SOL     OW29920  10.240   9.566   4.204
42638SOL    HW129921  10.224   9.623   4.128
42638SOL    HW229922  10.335   9.581   4.220
42639SOL     OW29923  10.370   9.991   5.194
42639SOL    HW129924  10.304   9.920   5.204
42639SOL    HW229925  10.455   9.943   5.193
42640SOL     OW29926  10.549  10.884   4.533
42640SOL    HW129927  10.511  10.971   4.519
42640SOL    HW229928  10.638  10.903   4.564
42641SOL     OW29929   9.779  10.481   4.457
42641SOL    HW129930   9.710  10.449   4.518
42641SOL    HW229931   9.744  10.452   4.370
42642SOL     OW29932  10.345   9.847   3.732
42642SOL    HW129933  10.298   9.930   3.711
42642SOL    HW229934  10.415   9.876   3.792
42643SOL     OW29935   9.369   9.868   5.113
42643SOL    HW129936   9.462   9.841   5.102
42643SOL    HW229937   9.378   9.942   5.177
42644SOL     OW29938   9.871   9.554   4.892
42644SOL    HW129939   9.917   9.484   4.941
42644SOL    HW229940   9.781   9.548   4.930
42645SOL     OW29941  10.182   9.773   4.384
42645SOL    HW129942  10.153   9.824   4.307
42645SOL    HW229943  10.204   9.688   4.344
42646SOL     OW29944  10.300   9.385   4.488
42646SOL    HW129945  10.271   9.365   4.398
42646SOL    HW229946  10.293   9.300   4.534
42647SOL     OW29947  10.733  10.485   4.605
42647SOL    HW129948  10.694  10.399   4.623
42647SOL    HW229949  10.731  10.489   4.508
42648SOL     OW29950  10.768   9.908   4.710
42648SOL    HW129951  10.716   9.828   4.721
42648SOL    HW229952  10.856   9.882   4.741
42649SOL     OW29953   0.002  10.130   4.108
42649SOL    HW129954   0.054  10.081   4.174
42649SOL    HW229955   0.003  10.065   4.036
42650SOL     OW29956   9.802  10.734   3.907
42650SOL    HW129957   9.731  10.704   3.967
42650SOL    HW229958   9.761  10.712   3.823
42651SOL     OW29959  10.711   9.904   3.797
42651SOL    HW129960  10.654   9.868   3.868
42651SOL    HW229961  10.799   9.889   3.834
42652SOL     OW29962   9.824   9.555   4.048
42652SOL    HW129963   9.873   9.525   3.969
42652SOL    HW229964   9.787   9.638   4.013
42653SOL     OW29965  11.056  10.554   5.342
42653SOL    HW129966   0.038  10.522   5.304
42653SOL    HW229967  11.088  10.608   5.415
42654SOL     OW29968  10.366  10.677   5.083
42654SOL    HW129969  10.280  10.641   5.110
42654SOL    HW229970  10.430  10.616   5.126
42655SOL     OW29971  10.905  10.954   5.368
42655SOL    HW129972  10.912  11.007   5.287
42655SOL    HW229973  10.970  10.885   5.351
42656SOL     OW29974  10.451  10.516   4.829
42656SOL    HW129975  10.367  10.535   4.872
42656SOL    HW229976  10.437  10.554   4.740
42657SOL     OW29977  10.924  10.399   4.824
42657SOL    HW129978  10.905  10.457   4.901
42657SOL    HW229979  10.873  10.444   4.755
42658SOL     OW29980  10.231   9.404   5.123
42658SOL    HW129981  10.254   9.382   5.031
42658SOL    HW229982  10.312   9.450   5.153
42659SOL     OW29983  10.309  10.437   5.465
42659SOL    HW129984  10.217  10.454   5.491
42659SOL    HW229985  10.299  10.365   5.399
42660SOL     OW29986  10.009  10.379   4.058
42660SOL    HW129987   9.998  10.355   4.151
42660SOL    HW229988  10.090  10.329   4.034
42661SOL     OW29989   9.728  10.123   4.983
42661SOL    HW129990   9.800  10.126   5.049
42661SOL    HW229991   9.685  10.038   5.005
42662SOL     OW29992  10.599   9.693   4.988
42662SOL    HW129993  10.618   9.775   5.039
42662SOL    HW229994  10.504   9.703   4.971
42663SOL     OW29995   9.364  10.880   5.071
42663SOL    HW129996   9.335  10.950   5.011
42663SOL    HW229997   9.461  10.885   5.067
42664SOL     OW29998   9.673  10.398   4.225
42664SOL    HW129999   9.666  10.471   4.164
42664SOL    HW230000   9.666  10.320   4.166
42665SOL     OW30001   9.848   9.851   4.570
42665SOL    HW130002   9.880   9.905   4.495
42665SOL    HW230003   9.911   9.877   4.639
42666SOL     OW30004  10.551  10.669   4.103
42666SOL    HW130005  10.610  10.735   4.143
42666SOL    HW230006  10.465  10.694   4.144
42667SOL     OW30007  10.594  10.772   4.893
42667SOL    HW130008  10.651  10.781   4.971
42667SOL    HW230009  10.544  10.690   4.911
42668SOL     OW30010  10.892   9.954   4.192
42668SOL    HW130011  10.836   9.998   4.258
42668SOL    HW230012  10.951  10.024   4.162
42669SOL     OW30013   9.640  10.829   5.053
42669SOL    HW130014   9.629  10.800   4.960
42669SOL    HW230015   9.735  10.845   5.054
42670SOL     OW30016   9.740  10.028   5.335
42670SOL    HW130017   9.798  10.081   5.279
42670SOL    HW230018   9.782   9.942   5.333
42671SOL     OW30019  10.926  10.077   5.394
42671SOL    HW130020  10.836  10.114   5.395
42671SOL    HW230021  10.971  10.138   5.332
42672SOL     OW30022  10.304   9.424   5.469
42672SOL    HW130023  10.353   9.504   5.444
42672SOL    HW230024  10.357   9.355   5.427
42673SOL     OW30025   9.810   9.319   5.476
42673SOL    HW130026   9.766   9.263   5.409
42673SOL    HW230027   9.750   9.396   5.478
42674SOL     OW30028   9.895  10.202   4.763
42674SOL    HW130029   9.928  10.293   4.767
42674SOL    HW230030   9.848  10.191   4.847
42675SOL     OW30031  10.696  10.201   4.743
42675SOL    HW130032  10.608  10.169   4.718
42675SOL    HW230033  10.743  10.117   4.757
42676SOL     OW30034  10.527   9.830   3.997
42676SOL    HW130035  10.528   9.755   4.061
42676SOL    HW230036  10.476   9.896   4.046
42677SOL     OW30037   9.613   9.526   4.978
42677SOL    HW130038   9.563   9.551   5.058
42677SOL    HW230039   9.595   9.430   4.973
42678SOL     OW30040   9.354  10.617   4.995
42678SOL    HW130041   9.378  10.562   5.071
42678SOL    HW230042   9.352  10.707   5.031
42679SOL     OW30043  10.030   9.955   4.764
42679SOL    HW130044  10.112   9.939   4.714
42679SOL    HW230045  10.004  10.046   4.739
42680SOL     OW30046   9.615   9.371   4.337
42680SOL    HW130047   9.601   9.464   4.362
42680SOL    HW230048   9.620   9.327   4.424
42681SOL     OW30049  10.931   9.699   4.074
42681SOL    HW130050  10.952   9.633   4.142
42681SOL    HW230051  10.910   9.778   4.127
42682SOL     OW30052  10.362  10.062   4.671
42682SOL    HW130053  10.349  10.077   4.767
42682SOL    HW230054  10.325   9.971   4.662
42683SOL     OW30055  10.296  10.853   5.436
42683SOL    HW130056  10.314  10.909   5.360
42683SOL    HW230057  10.349  10.773   5.414
42684SOL     OW30058   9.655  10.187   5.531
42684SOL    HW130059   9.736  10.217   5.574
42684SOL    HW230060   9.687  10.121   5.468
42685SOL     OW30061  10.803   9.572   3.852
42685SOL    HW130062  10.742   9.516   3.902
42685SOL    HW230063  10.855   9.616   3.922
42686SOL     OW30064  10.600  10.153   3.747
42686SOL    HW130065  10.647  10.070   3.769
42686SOL    HW230066  10.625  10.165   3.654
42687SOL     OW30067  10.386  10.636   4.582
42687SOL    HW130068  10.378  10.565   4.513
42687SOL    HW230069  10.446  10.700   4.541
42688SOL     OW30070   9.597  10.115   4.712
42688SOL    HW130071   9.688  10.144   4.697
42688SOL    HW230072   9.611  10.030   4.754
42689SOL     OW30073   9.639   9.823   4.737
42689SOL    HW130074   9.606   9.738   4.706
42689SOL    HW230075   9.705   9.845   4.668
42690SOL     OW30076  10.451   9.681   5.404
42690SOL    HW130077  10.400   9.731   5.471
42690SOL    HW230078  10.539   9.723   5.409
42691SOL     OW30079  10.470   9.508   5.195
42691SOL    HW130080  10.469   9.576   5.266
42691SOL    HW230081  10.507   9.559   5.121
42692SOL     OW30082   9.318  10.622   3.895
42692SOL    HW130083   9.225  10.645   3.873
42692SOL    HW230084   9.307  10.536   3.940
42693SOL     OW30085   9.828  10.906   4.657
42693SOL    HW130086   9.902  10.967   4.658
42693SOL    HW230087   9.863  10.833   4.603
42694SOL     OW30088  10.299  10.084   4.944
42694SOL    HW130089  10.347  10.058   5.025
42694SOL    HW230090  10.209  10.059   4.965
42695SOL     OW30091   9.338   9.827   4.837
42695SOL    HW130092   9.420   9.831   4.785
42695SOL    HW230093   9.368   9.856   4.924
42696SOL     OW30094   9.533   9.831   5.453
42696SOL    HW130095   9.587   9.786   5.386
42696SOL    HW230096   9.485   9.896   5.400
42697SOL     OW30097  10.697  10.226   5.383
42697SOL    HW130098  10.714  10.321   5.392
42697SOL    HW230099  10.684  10.216   5.287
42698SOL     OW30100  10.119   9.868   4.119
42698SOL    HW130101  10.132   9.807   4.045
42698SOL    HW230102  10.038   9.914   4.092
42699SOL     OW30103   9.538  10.838   5.458
42699SOL    HW130104   9.525  10.908   5.523
42699SOL    HW230105   9.552  10.759   5.514
42700SOL     OW30106   9.988   9.791   4.993
42700SOL    HW130107   9.949   9.712   4.954
42700SOL    HW230108   9.996   9.852   4.917
42701SOL     OW30109   9.748   9.781   3.926
42701SOL    HW130110   9.818   9.849   3.922
42701SOL    HW230111   9.668   9.836   3.918
42702SOL     OW30112   9.425  10.437   5.183
42702SOL    HW130113   9.449  10.386   5.264
42702SOL    HW230114   9.458  10.379   5.111
42703SOL     OW30115  10.631  10.360   4.955
42703SOL    HW130116  10.661  10.307   4.878
42703SOL    HW230117  10.565  10.418   4.913
42704SOL     OW30118  10.623  10.175   4.027
42704SOL    HW130119  10.546  10.139   4.072
42704SOL    HW230120  10.594  10.177   3.934
42705SOL     OW30121  11.033  11.019   4.874
42705SOL    HW130122   0.004  11.048   4.815
42705SOL    HW230123  11.020  10.925   4.845
42706SOL     OW30124  10.571  11.038   4.812
42706SOL    HW130125  10.656  11.053   4.767
42706SOL    HW230126  10.575  10.943   4.833
42707SOL     OW30127   9.414  10.570   4.740
42707SOL    HW130128   9.383  10.586   4.832
42707SOL    HW230129   9.343  10.512   4.706
42708SOL     OW30130  10.001  10.959   5.450
42708SOL    HW130131   9.933  11.028   5.445
42708SOL    HW230132  10.080  11.003   5.416
42709SOL     OW30133  11.044   9.436   4.265
42709SOL    HW130134  11.097   9.435   4.183
42709SOL    HW230135  11.041   9.341   4.290
42710SOL     OW30136  10.695  10.885   4.212
42710SOL    HW130137  10.769  10.904   4.151
42710SOL    HW230138  10.651  10.971   4.216
42711SOL     OW30139   9.466   0.005   5.563
42711SOL    HW130140   9.410  11.038   5.603
42711SOL    HW230141   9.509   0.041   5.642
42712SOL     OW30142  10.569  10.230   4.394
42712SOL    HW130143  10.645  10.172   4.415
42712SOL    HW230144  10.613  10.304   4.349
42713SOL     OW30145  10.098  10.578   5.141
42713SOL    HW130146  10.077  10.620   5.227
42713SOL    HW230147  10.015  10.595   5.094
42714SOL     OW30148   9.974  10.930   3.867
42714SOL    HW130149   9.988  10.924   3.770
42714SOL    HW230150   9.920  10.851   3.885
42715SOL     OW30151   9.569   9.620   4.430
42715SOL    HW130152   9.486   9.669   4.413
42715SOL    HW230153   9.585   9.638   4.524
42716SOL     OW30154  10.508  10.930   3.754
42716SOL    HW130155  10.503  10.839   3.784
42716SOL    HW230156  10.438  10.936   3.686
42717SOL     OW30157  10.139  10.317   5.076
42717SOL    HW130158  10.198  10.311   5.000
42717SOL    HW230159  10.132  10.414   5.091
42718SOL     OW30160  10.224  10.238   3.994
42718SOL    HW130161  10.302  10.270   3.946
42718SOL    HW230162  10.259  10.158   4.038
42719SOL     OW30163  10.805  10.968   3.763
42719SOL    HW130164  10.716  10.931   3.755
42719SOL    HW230165  10.844  10.944   3.677
42720SOL     OW30166   9.654  10.587   5.217
42720SOL    HW130167   9.643  10.663   5.158
42720SOL    HW230168   9.574  10.535   5.198
42721SOL     OW30169  10.885  10.589   5.014
42721SOL    HW130170  10.961  10.588   5.074
42721SOL    HW230171  10.837  10.669   5.044
42722SOL     OW30172  10.356  10.416   4.438
42722SOL    HW130173  10.287  10.362   4.479
42722SOL    HW230174  10.418  10.349   4.406
42723SOL     OW30175  10.342   9.537   4.707
42723SOL    HW130176  10.321   9.492   4.623
42723SOL    HW230177  10.349   9.462   4.769
42724SOL     OW30178   9.922  10.813   4.230
42724SOL    HW130179   9.950  10.767   4.150
42724SOL    HW230180   9.876  10.890   4.195
42725SOL     OW30181   9.568  10.665   4.014
42725SOL    HW130182   9.474  10.663   3.992
42725SOL    HW230183   9.565  10.707   4.102
42726SOL     OW30184   9.449  10.314   5.416
42726SOL    HW130185   9.371  10.304   5.475
42726SOL    HW230186   9.521  10.274   5.470
42727SOL     OW30187   9.976   9.492   5.216
42727SOL    HW130188  10.061   9.460   5.181
42727SOL    HW230189  10.004   9.530   5.302
42728SOL     OW30190   9.415   9.640   3.739
42728SOL    HW130191   9.321   9.646   3.718
42728SOL    HW230192   9.449   9.721   3.696
42729SOL     OW30193  10.717  10.169   5.117
42729SOL    HW130194  10.669  10.232   5.060
42729SOL    HW230195  10.809  10.192   5.099
42730SOL     OW30196   9.343   9.477   4.017
42730SOL    HW130197   9.338   9.561   3.971
42730SOL    HW230198   9.429   9.442   3.985
42731SOL     OW30199  10.508  10.644   3.840
42731SOL    HW130200  10.427  10.590   3.846
42731SOL    HW230201  10.532  10.652   3.934
42732SOL     OW30202   9.934  10.134   5.156
42732SOL    HW130203   9.991  10.210   5.138
42732SOL    HW230204  10.000  10.064   5.171
42733SOL     OW30205  10.813  11.092   4.680
42733SOL    HW130206  10.850   0.037   4.604
42733SOL    HW230207  10.892  11.058   4.724
42734SOL     OW30208  10.061   9.854   5.445
42734SOL    HW130209  10.088   9.918   5.513
42734SOL    HW230210  10.072   9.768   5.487
42735SOL     OW30211  10.788  10.498   5.343
42735SOL    HW130212  10.768  10.499   5.440
42735SOL    HW230213  10.883  10.522   5.343
42736SOL     OW30214  10.997  10.174   4.954
42736SOL    HW130215  11.006  10.097   4.896
42736SOL    HW230216  10.966  10.244   4.894
42737SOL     OW30217  10.511   9.633   4.204
42737SOL    HW130218  10.577   9.563   4.190
42737SOL    HW230219  10.556   9.688   4.272
42738SOL     OW30220   9.912  10.044   4.382
42738SOL    HW130221   9.955  10.130   4.372
42738SOL    HW230222   9.833  10.053   4.328
42739SOL     OW30223  11.064   9.689   5.356
42739SOL    HW130224  11.024   9.748   5.290
42739SOL    HW230225  10.989   9.641   5.394
42740SOL     OW30226  11.044  10.228   5.213
42740SOL    HW130227  11.043  10.323   5.199
42740SOL    HW230228  11.032  10.193   5.122
42741SOL     OW30229  10.146  10.671   3.758
42741SOL    HW130230  10.141  10.688   3.853
42741SOL    HW230231  10.186  10.752   3.722
42742SOL     OW30232  10.187  10.250   4.562
42742SOL    HW130233  10.251  10.186   4.598
42742SOL    HW230234  10.158  10.298   4.641
42743SOL     OW30235  10.417  10.329   3.826
42743SOL    HW130236  10.380  10.368   3.745
42743SOL    HW230237  10.488  10.273   3.790
42744SOL     OW30238   0.054  10.868   4.577
42744SOL    HW130239  11.079  10.847   4.521
42744SOL    HW230240   0.070  10.783   4.621
42745SOL     OW30241   9.567  10.610   5.597
42745SOL    HW130242   9.491  10.570   5.554
42745SOL    HW230243   9.544  10.598   5.691
42746SOL     OW30244   9.396  10.567   4.385
42746SOL    HW130245   9.420  10.529   4.471
42746SOL    HW230246   9.446  10.511   4.325
42747SOL     OW30247   9.981  10.711   5.342
42747SOL    HW130248   9.906  10.661   5.378
42747SOL    HW230249   9.978  10.795   5.392
42748SOL     OW30250   0.002   9.473   4.923
42748SOL    HW130251   0.001   9.378   4.941
42748SOL    HW230252  11.085   9.477   4.829
42749SOL     OW30253   9.743   9.756   4.252
42749SOL    HW130254   9.796   9.693   4.202
42749SOL    HW230255   9.704   9.702   4.323
42750SOL     OW30256  10.990  10.762   4.809
42750SOL    HW130257  10.908  10.757   4.756
42750SOL    HW230258  10.980  10.689   4.871
42751SOL     OW30259   9.638   9.847   5.020
42751SOL    HW130260   9.700   9.807   5.083
42751SOL    HW230261   9.670   9.816   4.934
42752SOL     OW30262  10.153  10.879   4.406
42752SOL    HW130263  10.146  10.962   4.353
42752SOL    HW230264  10.063  10.843   4.399
42753SOL     OW30265  10.735   9.526   4.825
42753SOL    HW130266  10.741   9.442   4.871
42753SOL    HW230267  10.701   9.586   4.895
42754SOL     OW30268  10.342   9.314   4.879
42754SOL    HW130269  10.287   9.245   4.838
42754SOL    HW230270  10.431   9.274   4.874
42755SOL     OW30271  10.113  10.648   4.041
42755SOL    HW130272  10.059  10.568   4.034
42755SOL    HW230273  10.177  10.622   4.108
42756SOL     OW30274   9.911  10.857   4.998
42756SOL    HW130275   9.922  10.943   5.040
42756SOL    HW230276  10.001  10.840   4.965
42757SOL     OW30277  10.651   9.352   3.932
42757SOL    HW130278  10.661   9.312   3.845
42757SOL    HW230279  10.567   9.310   3.962
42758SOL     OW30280  10.635   9.778   4.395
42758SOL    HW130281  10.568   9.850   4.401
42758SOL    HW230282  10.627   9.733   4.481
42759SOL     OW30283  10.913   9.497   4.623
42759SOL    HW130284  10.841   9.509   4.688
42759SOL    HW230285  10.892   9.565   4.558
42760SOL     OW30286   9.350  10.383   4.035
42760SOL    HW130287   9.443  10.363   4.015
42760SOL    HW230288   9.316  10.293   4.052
42761SOL     OW30289   9.543   9.954   5.723
42761SOL    HW130290   9.452   9.939   5.751
42761SOL    HW230291   9.544   9.931   5.629
42762SOL     OW30292   9.541   9.587   6.580
42762SOL    HW130293   9.562   9.571   6.674
42762SOL    HW230294   9.452   9.547   6.573
42763SOL     OW30295   9.312   9.720   6.209
42763SOL    HW130296   9.228   9.741   6.255
42763SOL    HW230297   9.295   9.631   6.177
42764SOL     OW30298   9.866  10.582   6.756
42764SOL    HW130299   9.779  10.585   6.712
42764SOL    HW230300   9.864  10.665   6.806
42765SOL     OW30301  10.907  10.829   6.287
42765SOL    HW130302  10.862  10.798   6.367
42765SOL    HW230303  10.838  10.827   6.220
42766SOL     OW30304  10.456   9.987   6.294
42766SOL    HW130305  10.488  10.076   6.270
42766SOL    HW230306  10.421  10.005   6.383
42767SOL     OW30307  11.083   9.915   5.818
42767SOL    HW130308  11.057   9.916   5.723
42767SOL    HW230309  11.033   9.840   5.853
42768SOL     OW30310  10.047  10.458   6.591
42768SOL    HW130311   9.985  10.497   6.655
42768SOL    HW230312  10.093  10.538   6.559
42769SOL     OW30313  10.174  10.109   7.400
42769SOL    HW130314  10.147  10.172   7.468
42769SOL    HW230315  10.178  10.163   7.319
42770SOL     OW30316  10.003  10.337   6.238
42770SOL    HW130317  10.062  10.312   6.311
42770SOL    HW230318   9.932  10.386   6.284
42771SOL     OW30319  10.030  10.445   7.378
42771SOL    HW130320  10.065  10.531   7.411
42771SOL    HW230321   9.940  10.471   7.350
42772SOL     OW30322   9.639  10.750   6.656
42772SOL    HW130323   9.561  10.723   6.605
42772SOL    HW230324   9.683  10.812   6.595
42773SOL     OW30325  10.781  10.839   6.937
42773SOL    HW130326  10.805  10.932   6.948
42773SOL    HW230327  10.731  10.822   7.019
42774SOL     OW30328   9.753   9.697   7.115
42774SOL    HW130329   9.820   9.631   7.095
42774SOL    HW230330   9.669   9.653   7.092
42775SOL     OW30331  10.457  10.648   7.269
42775SOL    HW130332  10.503  10.640   7.354
42775SOL    HW230333  10.402  10.566   7.270
42776SOL     OW30334   9.525  10.777   6.101
42776SOL    HW130335   9.561  10.854   6.146
42776SOL    HW230336   9.480  10.728   6.173
42777SOL     OW30337   9.574  10.407   6.481
42777SOL    HW130338   9.568  10.334   6.544
42777SOL    HW230339   9.523  10.477   6.526
42778SOL     OW30340   9.875  10.302   5.700
42778SOL    HW130341   9.931  10.345   5.633
42778SOL    HW230342   9.914  10.338   5.782
42779SOL     OW30343  10.974   9.398   7.100
42779SOL    HW130344  10.961   9.443   7.016
42779SOL    HW230345  10.923   9.452   7.163
42780SOL     OW30346   9.427   9.957   6.149
42780SOL    HW130347   9.390   9.868   6.164
42780SOL    HW230348   9.421   9.999   6.237
42781SOL     OW30349   9.364  10.901   5.705
42781SOL    HW130350   9.352  10.806   5.721
42781SOL    HW230351   9.311  10.940   5.775
42782SOL     OW30352  11.001  10.269   6.225
42782SOL    HW130353  11.075  10.208   6.240
42782SOL    HW230354  11.019  10.303   6.136
42783SOL     OW30355   9.405  10.035   7.173
42783SOL    HW130356   9.474  10.094   7.208
42783SOL    HW230357   9.327  10.093   7.176
42784SOL     OW30358   9.912  10.708   6.347
42784SOL    HW130359   9.871  10.619   6.356
42784SOL    HW230360   9.901  10.723   6.251
42785SOL     OW30361  10.596  10.538   7.023
42785SOL    HW130362  10.625  10.477   6.953
42785SOL    HW230363  10.665  10.525   7.091
42786SOL     OW30364  10.143   9.314   6.088
42786SOL    HW130365  10.178   9.404   6.074
42786SOL    HW230366  10.047   9.331   6.091
42787SOL     OW30367   9.493  10.283   6.827
42787SOL    HW130368   9.578  10.239   6.814
42787SOL    HW230369   9.428  10.222   6.791
42788SOL     OW30370  10.833  10.322   5.797
42788SOL    HW130371  10.764  10.271   5.843
42788SOL    HW230372  10.912  10.298   5.845
42789SOL     OW30373  10.495  11.099   7.213
42789SOL    HW130374  10.499   0.073   7.151
42789SOL    HW230375  10.521  11.025   7.156
42790SOL     OW30376   9.648   9.541   7.358
42790SOL    HW130377   9.704   9.619   7.368
42790SOL    HW230378   9.566   9.571   7.401
42791SOL     OW30379  10.764  10.744   6.528
42791SOL    HW130380  10.703  10.756   6.602
42791SOL    HW230381  10.745  10.652   6.501
42792SOL     OW30382   9.902  10.015   5.843
42792SOL    HW130383   9.906  10.103   5.805
42792SOL    HW230384   9.826  10.022   5.903
42793SOL     OW30385  10.575   9.656   6.497
42793SOL    HW130386  10.486   9.623   6.518
42793SOL    HW230387  10.627   9.616   6.570
42794SOL     OW30388  10.882  10.949   5.886
42794SOL    HW130389  10.924  11.031   5.913
42794SOL    HW230390  10.851  10.969   5.796
42795SOL     OW30391  10.104   9.913   7.055
42795SOL    HW130392  10.083   9.887   7.148
42795SOL    HW230393  10.041   9.860   7.003
42796SOL     OW30394  10.702   9.783   7.260
42796SOL    HW130395  10.707   9.844   7.336
42796SOL    HW230396  10.760   9.711   7.287
42797SOL     OW30397  10.260  10.214   7.159
42797SOL    HW130398  10.298  10.129   7.128
42797SOL    HW230399  10.217  10.247   7.079
42798SOL     OW30400  10.308   9.705   6.823
42798SOL    HW130401  10.231   9.730   6.873
42798SOL    HW230402  10.272   9.675   6.738
42799SOL     OW30403  10.348  10.009   6.004
42799SOL    HW130404  10.358  10.017   6.100
42799SOL    HW230405  10.263   9.960   5.998
42800SOL     OW30406   9.409  10.117   6.384
42800SOL    HW130407   9.482  10.119   6.448
42800SOL    HW230408   9.358  10.195   6.409
42801SOL     OW30409   9.397   0.058   7.168
42801SOL    HW130410   9.431   0.027   7.255
42801SOL    HW230411   9.303   0.041   7.175
42802SOL     OW30412  10.207   9.668   5.805
42802SOL    HW130413  10.247   9.732   5.744
42802SOL    HW230414  10.220   9.587   5.755
42803SOL     OW30415  11.022   9.902   7.423
42803SOL    HW130416  10.989   9.976   7.367
42803SOL    HW230417  11.067   9.848   7.357
42804SOL     OW30418  10.671  10.464   6.167
42804SOL    HW130419  10.730  10.463   6.091
42804SOL    HW230420  10.600  10.521   6.134
42805SOL     OW30421   9.853   9.493   6.480
42805SOL    HW130422   9.857   9.521   6.574
42805SOL    HW230423   9.847   9.578   6.434
42806SOL     OW30424  10.322  10.767   6.089
42806SOL    HW130425  10.274  10.819   6.024
42806SOL    HW230426  10.277  10.792   6.172
42807SOL     OW30427   9.651   0.007   6.466
42807SOL    HW130428   9.706  11.031   6.489
42807SOL    HW230429   9.717   0.080   6.468
42808SOL     OW30430  11.092  10.369   6.474
42808SOL    HW130431  11.033  10.356   6.398
42808SOL    HW230432  11.032  10.363   6.552
42809SOL     OW30433  10.534  10.863   7.074
42809SOL    HW130434  10.535  10.788   7.136
42809SOL    HW230435  10.475  10.827   7.005
42810SOL     OW30436   9.617  10.255   5.836
42810SOL    HW130437   9.703  10.278   5.799
42810SOL    HW230438   9.593  10.176   5.784
42811SOL     OW30439  10.789  10.064   6.305
42811SOL    HW130440  10.783  10.027   6.394
42811SOL    HW230441  10.868  10.119   6.307
42812SOL     OW30442   9.794  10.556   7.306
42812SOL    HW130443   9.749  10.569   7.220
42812SOL    HW230444   9.718  10.565   7.367
42813SOL     OW30445  10.415  11.083   5.836
42813SOL    HW130446  10.348  11.039   5.888
42813SOL    HW230447  10.415  11.034   5.752
42814SOL     OW30448   9.485   9.600   7.081
42814SOL    HW130449   9.404   9.651   7.094
42814SOL    HW230450   9.487   9.544   7.160
42815SOL     OW30451  10.729   9.435   6.037
42815SOL    HW130452  10.718   9.394   5.949
42815SOL    HW230453  10.825   9.431   6.051
42816SOL     OW30454   9.688  10.002   6.038
42816SOL    HW130455   9.711   9.911   6.069
42816SOL    HW230456   9.593  10.003   6.058
42817SOL     OW30457  10.847   9.533   7.320
42817SOL    HW130458  10.838   9.547   7.417
42817SOL    HW230459  10.775   9.470   7.305
42818SOL     OW30460   9.943   9.444   5.676
42818SOL    HW130461  10.014   9.386   5.707
42818SOL    HW230462   9.895   9.387   5.613
42819SOL     OW30463  10.070   9.569   7.324
42819SOL    HW130464  10.147   9.511   7.336
42819SOL    HW230465  10.016   9.546   7.402
42820SOL     OW30466  10.185  10.826   6.766
42820SOL    HW130467  10.173  10.788   6.676
42820SOL    HW230468  10.254  10.770   6.804
42821SOL     OW30469  10.627   9.909   7.016
42821SOL    HW130470  10.664   9.874   7.099
42821SOL    HW230471  10.665   9.999   7.010
42822SOL     OW30472  10.143  10.707   6.524
42822SOL    HW130473  10.229  10.696   6.479
42822SOL    HW230474  10.080  10.710   6.450
42823SOL     OW30475  10.243   9.828   6.495
42823SOL    HW130476  10.222   9.820   6.399
42823SOL    HW230477  10.262   9.735   6.516
42824SOL     OW30478   9.864   9.359   6.086
42824SOL    HW130479   9.784   9.367   6.141
42824SOL    HW230480   9.851   9.433   6.023
42825SOL     OW30481  10.750  10.488   5.605
42825SOL    HW130482  10.781  10.426   5.674
42825SOL    HW230483  10.663  10.513   5.639
42826SOL     OW30484   9.593   9.346   5.773
42826SOL    HW130485   9.653   9.420   5.761
42826SOL    HW230486   9.651   9.280   5.815
42827SOL     OW30487  10.243   9.566   6.065
42827SOL    HW130488  10.229   9.614   5.982
42827SOL    HW230489  10.339   9.578   6.077
42828SOL     OW30490  10.364   9.988   7.047
42828SOL    HW130491  10.294   9.921   7.056
42828SOL    HW230492  10.446   9.936   7.051
42829SOL     OW30493  10.543  10.877   6.392
42829SOL    HW130494  10.516  10.969   6.380
42829SOL    HW230495  10.636  10.885   6.419
42830SOL     OW30496   9.781  10.478   6.320
42830SOL    HW130497   9.712  10.449   6.383
42830SOL    HW230498   9.742  10.450   6.235
42831SOL     OW30499  10.331   9.838   5.607
42831SOL    HW130500  10.293   9.922   5.576
42831SOL    HW230501  10.408   9.869   5.658
42832SOL     OW30502   9.368   9.859   6.975
42832SOL    HW130503   9.463   9.839   6.964
42832SOL    HW230504   9.371   9.935   7.037
42833SOL     OW30505   9.865   9.553   6.755
42833SOL    HW130506   9.911   9.484   6.804
42833SOL    HW230507   9.774   9.545   6.788
42834SOL     OW30508  10.189   9.774   6.244
42834SOL    HW130509  10.148   9.824   6.173
42834SOL    HW230510  10.207   9.689   6.202
42835SOL     OW30511  10.312   9.383   6.349
42835SOL    HW130512  10.287   9.366   6.257
42835SOL    HW230513  10.299   9.297   6.392
42836SOL     OW30514  10.739  10.477   6.471
42836SOL    HW130515  10.694  10.396   6.499
42836SOL    HW230516  10.727  10.474   6.375
42837SOL     OW30517  10.768   9.911   6.607
42837SOL    HW130518  10.713   9.834   6.590
42837SOL    HW230519  10.855   9.873   6.626
42838SOL     OW30520   0.005  10.128   5.975
42838SOL    HW130521   0.064  10.080   6.037
42838SOL    HW230522   0.003  10.062   5.902
42839SOL     OW30523   9.795  10.737   5.770
42839SOL    HW130524   9.724  10.699   5.825
42839SOL    HW230525   9.764  10.711   5.683
42840SOL     OW30526  10.710   9.905   5.662
42840SOL    HW130527  10.651   9.868   5.731
42840SOL    HW230528  10.798   9.891   5.701
42841SOL     OW30529   9.823   9.537   5.895
42841SOL    HW130530   9.875   9.515   5.816
42841SOL    HW230531   9.784   9.623   5.867
42842SOL     OW30532  11.055  10.542   7.202
42842SOL    HW130533   0.043  10.519   7.173
42842SOL    HW230534  11.073  10.611   7.267
42843SOL     OW30535  10.367  10.671   6.941
42843SOL    HW130536  10.281  10.639   6.974
42843SOL    HW230537  10.431  10.612   6.987
42844SOL     OW30538  10.882  10.975   7.224
42844SOL    HW130539  10.894  11.041   7.153
42844SOL    HW230540  10.963  10.924   7.217
42845SOL     OW30541  10.453  10.516   6.689
42845SOL    HW130542  10.375  10.547   6.735
42845SOL    HW230543  10.441  10.556   6.601
42846SOL     OW30544  10.926  10.407   6.683
42846SOL    HW130545  10.910  10.468   6.758
42846SOL    HW230546  10.874  10.450   6.613
42847SOL     OW30547  10.232   9.402   6.987
42847SOL    HW130548  10.260   9.381   6.896
42847SOL    HW230549  10.311   9.449   7.020
42848SOL     OW30550  10.308  10.430   7.328
42848SOL    HW130551  10.215  10.450   7.349
42848SOL    HW230552  10.300  10.355   7.266
42849SOL     OW30553  10.007  10.381   5.923
42849SOL    HW130554   9.997  10.357   6.017
42849SOL    HW230555  10.086  10.328   5.899
42850SOL     OW30556   9.726  10.125   6.845
42850SOL    HW130557   9.794  10.127   6.915
42850SOL    HW230558   9.680  10.042   6.864
42851SOL     OW30559  10.593   9.700   6.859
42851SOL    HW130560  10.620   9.780   6.909
42851SOL    HW230561  10.501   9.720   6.836
42852SOL     OW30562   9.365  10.875   6.943
42852SOL    HW130563   9.327  10.941   6.883
42852SOL    HW230564   9.461  10.885   6.933
42853SOL     OW30565   9.673  10.395   6.087
42853SOL    HW130566   9.673  10.469   6.026
42853SOL    HW230567   9.655  10.320   6.028
42854SOL     OW30568   9.848   9.848   6.427
42854SOL    HW130569   9.876   9.904   6.352
42854SOL    HW230570   9.913   9.871   6.495
42855SOL     OW30571  10.549  10.665   5.969
42855SOL    HW130572  10.608  10.731   6.009
42855SOL    HW230573  10.464  10.692   6.009
42856SOL     OW30574  10.598  10.766   6.751
42856SOL    HW130575  10.658  10.781   6.827
42856SOL    HW230576  10.548  10.687   6.776
42857SOL     OW30577  10.889   9.947   6.051
42857SOL    HW130578  10.834   9.989   6.119
42857SOL    HW230579  10.957  10.014   6.036
42858SOL     OW30580   9.642  10.832   6.913
42858SOL    HW130581   9.629  10.797   6.823
42858SOL    HW230582   9.738  10.845   6.913
42859SOL     OW30583   9.754  10.034   7.208
42859SOL    HW130584   9.810  10.082   7.144
42859SOL    HW230585   9.789   9.944   7.201
42860SOL     OW30586  10.928  10.080   7.252
42860SOL    HW130587  10.837  10.116   7.257
42860SOL    HW230588  10.970  10.144   7.192
42861SOL     OW30589  10.295   9.411   7.324
42861SOL    HW130590  10.346   9.491   7.307
42861SOL    HW230591  10.353   9.343   7.285
42862SOL     OW30592   9.813   9.323   7.343
42862SOL    HW130593   9.771   9.265   7.276
42862SOL    HW230594   9.751   9.399   7.343
42863SOL     OW30595   9.898  10.204   6.624
42863SOL    HW130596   9.928  10.296   6.631
42863SOL    HW230597   9.847  10.190   6.706
42864SOL     OW30598  10.694  10.195   6.613
42864SOL    HW130599  10.608  10.161   6.585
42864SOL    HW230600  10.739  10.111   6.635
42865SOL     OW30601  10.529   9.825   5.855
42865SOL    HW130602  10.527   9.751   5.918
42865SOL    HW230603  10.482   9.894   5.904
42866SOL     OW30604   9.609   9.524   6.838
42866SOL    HW130605   9.560   9.555   6.917
42866SOL    HW230606   9.579   9.430   6.833
42867SOL     OW30607   9.367  10.615   6.858
42867SOL    HW130608   9.394  10.559   6.933
42867SOL    HW230609   9.354  10.702   6.899
42868SOL     OW30610  10.032   9.956   6.629
42868SOL    HW130611  10.111   9.935   6.576
42868SOL    HW230612  10.005  10.045   6.601
42869SOL     OW30613   9.611   9.374   6.194
42869SOL    HW130614   9.584   9.465   6.216
42869SOL    HW230615   9.614   9.332   6.282
42870SOL     OW30616  10.920   9.695   5.930
42870SOL    HW130617  10.959   9.641   5.999
42870SOL    HW230618  10.893   9.775   5.980
42871SOL     OW30619  10.361  10.062   6.539
42871SOL    HW130620  10.344  10.076   6.634
42871SOL    HW230621  10.326   9.971   6.528
42872SOL     OW30622  10.300  10.857   7.302
42872SOL    HW130623  10.312  10.909   7.223
42872SOL    HW230624  10.347  10.774   7.280
42873SOL     OW30625   9.660  10.186   7.400
42873SOL    HW130626   9.743  10.219   7.437
42873SOL    HW230627   9.691  10.124   7.331
42874SOL     OW30628  10.801   9.580   5.718
42874SOL    HW130629  10.739   9.520   5.762
42874SOL    HW230630  10.844   9.625   5.794
42875SOL     OW30631  10.594  10.151   5.622
42875SOL    HW130632  10.647  10.071   5.640
42875SOL    HW230633  10.621  10.172   5.530
42876SOL     OW30634  10.388  10.637   6.441
42876SOL    HW130635  10.380  10.565   6.375
42876SOL    HW230636  10.444  10.703   6.397
42877SOL     OW30637   9.596  10.118   6.579
42877SOL    HW130638   9.687  10.144   6.561
42877SOL    HW230639   9.607  10.026   6.608
42878SOL     OW30640   9.640   9.841   6.594
42878SOL    HW130641   9.608   9.750   6.578
42878SOL    HW230642   9.706   9.850   6.522
42879SOL     OW30643  10.453   9.680   7.263
42879SOL    HW130644  10.403   9.730   7.330
42879SOL    HW230645  10.541   9.721   7.268
42880SOL     OW30646  10.471   9.506   7.054
42880SOL    HW130647  10.470   9.574   7.125
42880SOL    HW230648  10.501   9.559   6.978
42881SOL     OW30649   9.314  10.628   5.760
42881SOL    HW130650   9.222  10.651   5.732
42881SOL    HW230651   9.301  10.541   5.802
42882SOL     OW30652   9.827  10.908   6.514
42882SOL    HW130653   9.903  10.966   6.516
42882SOL    HW230654   9.861  10.832   6.462
42883SOL     OW30655  10.297  10.077   6.803
42883SOL    HW130656  10.338  10.047   6.887
42883SOL    HW230657  10.204  10.063   6.823
42884SOL     OW30658   9.337   9.831   6.696
42884SOL    HW130659   9.418   9.823   6.646
42884SOL    HW230660   9.369   9.850   6.785
42885SOL     OW30661   9.540   9.826   7.298
42885SOL    HW130662   9.594   9.789   7.228
42885SOL    HW230663   9.488   9.894   7.250
42886SOL     OW30664  10.701  10.228   7.241
42886SOL    HW130665  10.717  10.323   7.248
42886SOL    HW230666  10.687  10.216   7.146
42887SOL     OW30667  10.120   9.872   5.974
42887SOL    HW130668  10.131   9.801   5.908
42887SOL    HW230669  10.042   9.919   5.941
42888SOL     OW30670   9.538  10.843   7.321
42888SOL    HW130671   9.533  10.915   7.384
42888SOL    HW230672   9.548  10.764   7.378
42889SOL     OW30673   9.967   9.802   6.849
42889SOL    HW130674   9.941   9.718   6.809
42889SOL    HW230675   9.984   9.860   6.772
42890SOL     OW30676   9.752   9.771   5.787
42890SOL    HW130677   9.820   9.841   5.787
42890SOL    HW230678   9.671   9.825   5.787
42891SOL     OW30679   9.461  10.439   7.041
42891SOL    HW130680   9.467  10.383   7.121
42891SOL    HW230681   9.470  10.375   6.967
42892SOL     OW30682  10.631  10.361   6.816
42892SOL    HW130683  10.660  10.307   6.739
42892SOL    HW230684  10.562  10.417   6.774
42893SOL     OW30685  10.625  10.177   5.890
42893SOL    HW130686  10.547  10.138   5.932
42893SOL    HW230687  10.599  10.180   5.796
42894SOL     OW30688  11.036  11.020   6.730
42894SOL    HW130689   0.005  11.050   6.670
42894SOL    HW230690  11.024  10.927   6.702
42895SOL     OW30691  10.565  11.037   6.679
42895SOL    HW130692  10.650  11.053   6.635
42895SOL    HW230693  10.570  10.942   6.698
42896SOL     OW30694   9.408  10.578   6.599
42896SOL    HW130695   9.388  10.588   6.695
42896SOL    HW230696   9.338  10.517   6.571
42897SOL     OW30697   9.994  10.964   7.312
42897SOL    HW130698   9.937  11.043   7.313
42897SOL    HW230699  10.073  10.995   7.265
42898SOL     OW30700  11.044   9.440   6.123
42898SOL    HW130701  11.096   9.442   6.040
42898SOL    HW230702  11.045   9.347   6.149
42899SOL     OW30703  10.691  10.885   6.076
42899SOL    HW130704  10.759  10.901   6.008
42899SOL    HW230705  10.651  10.972   6.085
42900SOL     OW30706   9.474   0.000   7.424
42900SOL    HW130707   9.413  11.035   7.463
42900SOL    HW230708   9.518   0.033   7.504
42901SOL     OW30709  10.575  10.225   6.263
42901SOL    HW130710  10.653  10.167   6.275
42901SOL    HW230711  10.613  10.300   6.215
42902SOL     OW30712  10.106  10.581   7.008
42902SOL    HW130713  10.084  10.628   7.091
42902SOL    HW230714  10.023  10.593   6.960
42903SOL     OW30715   9.971  10.930   5.724
42903SOL    HW130716   9.988  10.921   5.628
42903SOL    HW230717   9.916  10.852   5.743
42904SOL     OW30718   9.558   9.628   6.293
42904SOL    HW130719   9.477   9.678   6.272
42904SOL    HW230720   9.562   9.635   6.389
42905SOL     OW30721  10.507  10.925   5.618
42905SOL    HW130722  10.506  10.833   5.646
42905SOL    HW230723  10.441  10.928   5.547
42906SOL     OW30724  10.146  10.321   6.939
42906SOL    HW130725  10.207  10.315   6.864
42906SOL    HW230726  10.141  10.417   6.956
42907SOL     OW30727  10.221  10.235   5.859
42907SOL    HW130728  10.298  10.268   5.808
42907SOL    HW230729  10.255  10.154   5.898
42908SOL     OW30730  10.801  10.989   5.623
42908SOL    HW130731  10.721  10.933   5.618
42908SOL    HW230732  10.844  10.968   5.538
42909SOL     OW30733   9.672  10.591   7.072
42909SOL    HW130734   9.646  10.669   7.021
42909SOL    HW230735   9.593  10.534   7.063
42910SOL     OW30736  10.886  10.598   6.874
42910SOL    HW130737  10.959  10.597   6.938
42910SOL    HW230738  10.839  10.680   6.898
42911SOL     OW30739  10.360  10.415   6.302
42911SOL    HW130740  10.290  10.360   6.342
42911SOL    HW230741  10.425  10.348   6.275
42912SOL     OW30742  10.337   9.538   6.566
42912SOL    HW130743  10.324   9.491   6.481
42912SOL    HW230744  10.353   9.465   6.628
42913SOL     OW30745   9.926  10.808   6.092
42913SOL    HW130746   9.958  10.763   6.012
42913SOL    HW230747   9.876  10.882   6.055
42914SOL     OW30748   9.566  10.652   5.875
42914SOL    HW130749   9.472  10.659   5.851
42914SOL    HW230750   9.566  10.699   5.961
42915SOL     OW30751   9.455  10.318   7.278
42915SOL    HW130752   9.375  10.304   7.333
42915SOL    HW230753   9.524  10.276   7.332
42916SOL     OW30754   9.983   9.494   7.074
42916SOL    HW130755  10.071   9.462   7.047
42916SOL    HW230756  10.003   9.534   7.160
42917SOL     OW30757   9.419   9.642   5.604
42917SOL    HW130758   9.323   9.647   5.591
42917SOL    HW230759   9.447   9.726   5.563
42918SOL     OW30760  10.718  10.165   6.975
42918SOL    HW130761  10.670  10.228   6.918
42918SOL    HW230762  10.810  10.190   6.957
42919SOL     OW30763   9.358   9.468   5.883
42919SOL    HW130764   9.349   9.555   5.843
42919SOL    HW230765   9.438   9.435   5.841
42920SOL     OW30766  10.501  10.644   5.699
42920SOL    HW130767  10.414  10.602   5.701
42920SOL    HW230768  10.525  10.646   5.794
42921SOL     OW30769   9.935  10.128   7.018
42921SOL    HW130770   9.990  10.206   7.001
42921SOL    HW230771  10.003  10.059   7.032
42922SOL     OW30772  10.813  11.081   6.543
42922SOL    HW130773  10.847   0.033   6.469
42922SOL    HW230774  10.894  11.057   6.590
42923SOL     OW30775  10.045   9.863   7.306
42923SOL    HW130776  10.073   9.920   7.380
42923SOL    HW230777  10.039   9.774   7.344
42924SOL     OW30778  10.789  10.496   7.202
42924SOL    HW130779  10.771  10.500   7.299
42924SOL    HW230780  10.885  10.512   7.200
42925SOL     OW30781  10.991  10.181   6.814
42925SOL    HW130782  10.992  10.109   6.749
42925SOL    HW230783  10.959  10.258   6.762
42926SOL     OW30784  10.521   9.629   6.061
42926SOL    HW130785  10.592   9.563   6.049
42926SOL    HW230786  10.557   9.683   6.134
42927SOL     OW30787   9.906  10.043   6.240
42927SOL    HW130788   9.940  10.133   6.236
42927SOL    HW230789   9.824  10.050   6.188
42928SOL     OW30790  11.063   9.691   7.218
42928SOL    HW130791  11.023   9.753   7.156
42928SOL    HW230792  10.987   9.644   7.257
42929SOL     OW30793  11.050  10.235   7.074
42929SOL    HW130794  11.049  10.332   7.070
42929SOL    HW230795  11.029  10.210   6.982
42930SOL     OW30796  10.150  10.663   5.620
42930SOL    HW130797  10.137  10.686   5.713
42930SOL    HW230798  10.186  10.744   5.581
42931SOL     OW30799  10.190  10.251   6.423
42931SOL    HW130800  10.250  10.186   6.463
42931SOL    HW230801  10.156  10.300   6.499
42932SOL     OW30802  10.410  10.328   5.690
42932SOL    HW130803  10.376  10.365   5.607
42932SOL    HW230804  10.481  10.268   5.659
42933SOL     OW30805   0.065  10.864   6.433
42933SOL    HW130806  11.088  10.840   6.381
42933SOL    HW230807   0.075  10.788   6.491
42934SOL     OW30808   9.568  10.612   7.455
42934SOL    HW130809   9.495  10.568   7.409
42934SOL    HW230810   9.540  10.601   7.548
42935SOL     OW30811   9.395  10.567   6.244
42935SOL    HW130812   9.414  10.535   6.333
42935SOL    HW230813   9.449  10.509   6.189
42936SOL     OW30814   9.993  10.713   7.211
42936SOL    HW130815   9.924  10.655   7.248
42936SOL    HW230816   9.979  10.796   7.261
42937SOL     OW30817   0.004   9.475   6.779
42937SOL    HW130818  11.091   9.379   6.785
42937SOL    HW230819  11.073   9.495   6.690
42938SOL     OW30820   9.745   9.751   6.115
42938SOL    HW130821   9.800   9.685   6.071
42938SOL    HW230822   9.702   9.701   6.186
42939SOL     OW30823  10.997  10.766   6.657
42939SOL    HW130824  10.910  10.761   6.612
42939SOL    HW230825  10.989  10.696   6.724
42940SOL     OW30826   9.639   9.839   6.879
42940SOL    HW130827   9.715   9.807   6.930
42940SOL    HW230828   9.665   9.820   6.787
42941SOL     OW30829  10.147  10.878   6.266
42941SOL    HW130830  10.138  10.959   6.212
42941SOL    HW230831  10.057  10.841   6.263
42942SOL     OW30832  10.725   9.546   6.687
42942SOL    HW130833  10.748   9.464   6.732
42942SOL    HW230834  10.688   9.600   6.760
42943SOL     OW30835  10.340   9.315   6.740
42943SOL    HW130836  10.287   9.254   6.687
42943SOL    HW230837  10.430   9.276   6.731
42944SOL     OW30838  10.110  10.646   5.903
42944SOL    HW130839  10.058  10.564   5.892
42944SOL    HW230840  10.171  10.619   5.973
42945SOL     OW30841   9.910  10.858   6.861
42945SOL    HW130842   9.922  10.943   6.905
42945SOL    HW230843  10.000  10.841   6.829
42946SOL     OW30844  10.661   9.344   5.797
42946SOL    HW130845  10.667   9.310   5.707
42946SOL    HW230846  10.574   9.307   5.823
42947SOL     OW30847  10.634   9.784   6.262
42947SOL    HW130848  10.566   9.855   6.262
42947SOL    HW230849  10.616   9.739   6.346
42948SOL     OW30850  10.918   9.518   6.493
42948SOL    HW130851  10.837   9.520   6.546
42948SOL    HW230852  10.893   9.567   6.415
42949SOL     OW30853   9.349  10.373   5.894
42949SOL    HW130854   9.440  10.356   5.868
42949SOL    HW230855   9.321  10.283   5.920
42950SOL     OW30856   9.534   9.940   7.584
42950SOL    HW130857   9.441   9.950   7.607
42950SOL    HW230858   9.535   9.943   7.487
42951SOL     OW30859   9.530   9.594   8.445
42951SOL    HW130860   9.556   9.571   8.537
42951SOL    HW230861   9.444   9.549   8.437
42952SOL     OW30862   9.313   9.716   8.080
42952SOL    HW130863   9.228   9.740   8.123
42952SOL    HW230864   9.288   9.636   8.033
42953SOL     OW30865   9.869  10.585   8.619
42953SOL    HW130866   9.784  10.587   8.574
42953SOL    HW230867   9.867  10.668   8.668
42954SOL     OW30868  10.902  10.811   8.152
42954SOL    HW130869  10.854  10.786   8.233
42954SOL    HW230870  10.831  10.814   8.086
42955SOL     OW30871  10.459   9.984   8.155
42955SOL    HW130872  10.494  10.073   8.134
42955SOL    HW230873  10.418  10.002   8.241
42956SOL     OW30874  11.085   9.911   7.683
42956SOL    HW130875  11.055   9.917   7.590
42956SOL    HW230876  11.035   9.835   7.717
42957SOL     OW30877  10.050  10.455   8.458
42957SOL    HW130878   9.984  10.493   8.518
42957SOL    HW230879  10.091  10.536   8.422
42958SOL     OW30880  10.188  10.082   9.256
42958SOL    HW130881  10.161  10.145   9.324
42958SOL    HW230882  10.192  10.136   9.175
42959SOL     OW30883  10.000  10.334   8.100
42959SOL    HW130884  10.056  10.312   8.176
42959SOL    HW230885   9.928  10.383   8.143
42960SOL     OW30886  10.028  10.454   9.249
42960SOL    HW130887  10.063  10.538   9.284
42960SOL    HW230888   9.943  10.482   9.210
42961SOL     OW30889   9.635  10.757   8.525
42961SOL    HW130890   9.563  10.725   8.469
42961SOL    HW230891   9.691  10.808   8.462
42962SOL     OW30892  10.781  10.829   8.803
42962SOL    HW130893  10.798  10.923   8.818
42962SOL    HW230894  10.733  10.804   8.883
42963SOL     OW30895   9.758   9.713   8.952
42963SOL    HW130896   9.843   9.667   8.959
42963SOL    HW230897   9.694   9.644   8.970
42964SOL     OW30898  10.461  10.653   9.138
42964SOL    HW130899  10.504  10.647   9.224
42964SOL    HW230900  10.408  10.571   9.135
42965SOL     OW30901   9.565  10.767   7.974
42965SOL    HW130902   9.571  10.856   8.010
42965SOL    HW230903   9.503  10.722   8.034
42966SOL     OW30904   9.590  10.408   8.352
42966SOL    HW130905   9.579  10.330   8.408
42966SOL    HW230906   9.533  10.474   8.397
42967SOL     OW30907   9.897  10.294   7.564
42967SOL    HW130908   9.948  10.340   7.495
42967SOL    HW230909   9.932  10.336   7.645
42968SOL     OW30910  10.904   9.412   8.949
42968SOL    HW130911  10.910   9.475   8.876
42968SOL    HW230912  10.890   9.468   9.026
42969SOL     OW30913   9.420   9.962   8.006
42969SOL    HW130914   9.392   9.870   8.023
42969SOL    HW230915   9.413  10.003   8.095
42970SOL     OW30916   9.363  10.907   7.574
42970SOL    HW130917   9.349  10.812   7.586
42970SOL    HW230918   9.308  10.946   7.643
42971SOL     OW30919  10.985  10.274   8.087
42971SOL    HW130920  11.059  10.214   8.076
42971SOL    HW230921  10.991  10.331   8.009
42972SOL     OW30922   9.435  10.042   9.031
42972SOL    HW130923   9.525  10.079   9.039
42972SOL    HW230924   9.380  10.119   9.049
42973SOL     OW30925   9.909  10.710   8.212
42973SOL    HW130926   9.869  10.620   8.216
42973SOL    HW230927   9.901  10.726   8.116
42974SOL     OW30928  10.595  10.548   8.880
42974SOL    HW130929  10.623  10.481   8.815
42974SOL    HW230930  10.662  10.535   8.951
42975SOL     OW30931  10.141   9.311   7.951
42975SOL    HW130932  10.173   9.403   7.940
42975SOL    HW230933  10.045   9.324   7.955
42976SOL     OW30934   9.501  10.290   8.701
42976SOL    HW130935   9.587  10.250   8.678
42976SOL    HW230936   9.437  10.233   8.657
42977SOL     OW30937  10.838  10.312   7.651
42977SOL    HW130938  10.770  10.263   7.702
42977SOL    HW230939  10.916  10.303   7.706
42978SOL     OW30940  10.497   0.004   9.073
42978SOL    HW130941  10.498   0.077   9.008
42978SOL    HW230942  10.525  11.030   9.019
42979SOL     OW30943   9.646   9.554   9.214
42979SOL    HW130944   9.715   9.596   9.267
42979SOL    HW230945   9.566   9.578   9.265
42980SOL     OW30946  10.764  10.736   8.392
42980SOL    HW130947  10.704  10.755   8.467
42980SOL    HW230948  10.742  10.644   8.372
42981SOL     OW30949   9.902  10.019   7.701
42981SOL    HW130950   9.912  10.106   7.660
42981SOL    HW230951   9.826  10.033   7.760
42982SOL     OW30952  10.577   9.656   8.359
42982SOL    HW130953  10.488   9.618   8.373
42982SOL    HW230954  10.627   9.617   8.433
42983SOL     OW30955  10.886  10.954   7.746
42983SOL    HW130956  10.932  11.038   7.756
42983SOL    HW230957  10.858  10.959   7.652
42984SOL     OW30958  10.103   9.918   8.909
42984SOL    HW130959  10.090   9.888   9.001
42984SOL    HW230960  10.044   9.859   8.858
42985SOL     OW30961  10.699   9.793   9.118
42985SOL    HW130962  10.700   9.849   9.198
42985SOL    HW230963  10.753   9.717   9.145
42986SOL     OW30964  10.244  10.208   9.021
42986SOL    HW130965  10.285  10.124   8.989
42986SOL    HW230966  10.207  10.244   8.938
42987SOL     OW30967  10.318   9.699   8.695
42987SOL    HW130968  10.234   9.724   8.734
42987SOL    HW230969  10.294   9.660   8.610
42988SOL     OW30970  10.349  10.009   7.867
42988SOL    HW130971  10.363  10.016   7.963
42988SOL    HW230972  10.264   9.960   7.862
42989SOL     OW30973   9.405  10.113   8.241
42989SOL    HW130974   9.475  10.133   8.306
42989SOL    HW230975   9.355  10.195   8.237
42990SOL     OW30976   9.398   0.050   9.029
42990SOL    HW130977   9.434   0.025   9.117
42990SOL    HW230978   9.304   0.038   9.040
42991SOL     OW30979  10.202   9.678   7.661
42991SOL    HW130980  10.235   9.740   7.594
42991SOL    HW230981  10.243   9.596   7.632
42992SOL     OW30982  11.033   9.892   9.278
42992SOL    HW130983  10.996   9.967   9.227
42992SOL    HW230984  11.071   9.837   9.208
42993SOL     OW30985  10.674  10.461   8.031
42993SOL    HW130986  10.732  10.462   7.954
42993SOL    HW230987  10.603  10.519   8.000
42994SOL     OW30988   9.866   9.493   8.335
42994SOL    HW130989   9.874   9.510   8.431
42994SOL    HW230990   9.868   9.581   8.297
42995SOL     OW30991  10.325  10.769   7.943
42995SOL    HW130992  10.269  10.817   7.882
42995SOL    HW230993  10.288  10.795   8.029
42996SOL     OW30994   9.651  11.100   8.324
42996SOL    HW130995   9.708  11.027   8.354
42996SOL    HW230996   9.712   0.075   8.329
42997SOL     OW30997  11.095  10.361   8.327
42997SOL    HW130998  11.034  10.354   8.252
42997SOL    HW230999  11.036  10.357   8.405
42998SOL     OW31000  10.534  10.861   8.942
42998SOL    HW131001  10.537  10.783   9.001
42998SOL    HW231002  10.475  10.830   8.872
42999SOL     OW31003   9.620  10.259   7.704
42999SOL    HW131004   9.705  10.278   7.661
42999SOL    HW231005   9.585  10.187   7.650
43000SOL     OW31006  10.786  10.065   8.160
43000SOL    HW131007  10.778  10.026   8.248
43000SOL    HW231008  10.862  10.124   8.168
43001SOL     OW31009   9.785  10.563   9.174
43001SOL    HW131010   9.737  10.573   9.089
43001SOL    HW231011   9.711  10.567   9.236
43002SOL     OW31012  10.414  11.088   7.696
43002SOL    HW131013  10.345  11.050   7.750
43002SOL    HW231014  10.411  11.035   7.614
43003SOL     OW31015   9.470   9.590   8.940
43003SOL    HW131016   9.398   9.646   8.973
43003SOL    HW231017   9.493   9.540   9.019
43004SOL     OW31018  10.717   9.442   7.903
43004SOL    HW131019  10.705   9.401   7.815
43004SOL    HW231020  10.811   9.433   7.919
43005SOL     OW31021   9.701  10.020   7.888
43005SOL    HW131022   9.714   9.927   7.917
43005SOL    HW231023   9.605  10.027   7.902
43006SOL     OW31024  10.829   9.548   9.180
43006SOL    HW131025  10.823   9.561   9.278
43006SOL    HW231026  10.776   9.468   9.172
43007SOL     OW31027   9.936   9.449   7.543
43007SOL    HW131028  10.009   9.391   7.566
43007SOL    HW231029   9.885   9.393   7.481
43008SOL     OW31030  10.075   9.557   9.196
43008SOL    HW131031  10.152   9.497   9.195
43008SOL    HW231032  10.082   9.594   9.286
43009SOL     OW31033  10.188  10.826   8.626
43009SOL    HW131034  10.176  10.789   8.536
43009SOL    HW231035  10.256  10.769   8.666
43010SOL     OW31036  10.617   9.912   8.882
43010SOL    HW131037  10.656   9.876   8.964
43010SOL    HW231038  10.665   9.996   8.869
43011SOL     OW31039  10.141  10.704   8.390
43011SOL    HW131040  10.227  10.696   8.343
43011SOL    HW231041  10.078  10.710   8.316
43012SOL     OW31042  10.247   9.833   8.357
43012SOL    HW131043  10.220   9.823   8.262
43012SOL    HW231044  10.264   9.740   8.380
43013SOL     OW31045   9.867   9.354   7.953
43013SOL    HW131046   9.787   9.363   8.007
43013SOL    HW231047   9.858   9.432   7.894
43014SOL     OW31048  10.756  10.491   7.465
43014SOL    HW131049  10.781  10.424   7.532
43014SOL    HW231050  10.677  10.529   7.505
43015SOL     OW31051   9.593   9.344   7.631
43015SOL    HW131052   9.649   9.420   7.614
43015SOL    HW231053   9.656   9.282   7.672
43016SOL     OW31054  10.236   9.567   7.936
43016SOL    HW131055  10.216   9.616   7.855
43016SOL    HW231056  10.332   9.580   7.943
43017SOL     OW31057  10.364   9.990   8.921
43017SOL    HW131058  10.306   9.913   8.924
43017SOL    HW231059  10.454   9.952   8.919
43018SOL     OW31060  10.550  10.884   8.261
43018SOL    HW131061  10.511  10.972   8.249
43018SOL    HW231062  10.639  10.905   8.293
43019SOL     OW31063   9.781  10.482   8.178
43019SOL    HW131064   9.713  10.454   8.242
43019SOL    HW231065   9.742  10.450   8.094
43020SOL     OW31066  10.328   9.841   7.468
43020SOL    HW131067  10.283   9.922   7.439
43020SOL    HW231068  10.406   9.876   7.511
43021SOL     OW31069   9.372   9.866   8.840
43021SOL    HW131070   9.465   9.844   8.820
43021SOL    HW231071   9.384   9.941   8.902
43022SOL     OW31072   9.882   9.525   8.606
43022SOL    HW131073   9.924   9.451   8.653
43022SOL    HW231074   9.796   9.531   8.650
43023SOL     OW31075  10.176   9.780   8.112
43023SOL    HW131076  10.135   9.826   8.037
43023SOL    HW231077  10.203   9.696   8.071
43024SOL     OW31078  10.347   9.374   8.215
43024SOL    HW131079  10.306   9.358   8.129
43024SOL    HW231080  10.322   9.294   8.265
43025SOL     OW31081  10.744  10.470   8.337
43025SOL    HW131082  10.700  10.386   8.358
43025SOL    HW231083  10.731  10.475   8.241
43026SOL     OW31084  10.767   9.910   8.451
43026SOL    HW131085  10.719   9.826   8.452
43026SOL    HW231086  10.858   9.884   8.472
43027SOL     OW31087  11.096  10.134   7.842
43027SOL    HW131088   0.057  10.086   7.899
43027SOL    HW231089  11.098  10.075   7.764
43028SOL     OW31090   9.801  10.737   7.632
43028SOL    HW131091   9.729  10.704   7.690
43028SOL    HW231092   9.763  10.712   7.547
43029SOL     OW31093  10.710   9.905   7.512
43029SOL    HW131094  10.656   9.870   7.586
43029SOL    HW231095  10.799   9.903   7.550
43030SOL     OW31096   9.834   9.547   7.771
43030SOL    HW131097   9.879   9.519   7.689
43030SOL    HW231098   9.796   9.631   7.741
43031SOL     OW31099  11.050  10.552   9.066
43031SOL    HW131100   0.037  10.524   9.037
43031SOL    HW231101  11.070  10.622   9.128
43032SOL     OW31102  10.363  10.671   8.804
43032SOL    HW131103  10.279  10.636   8.839
43032SOL    HW231104  10.430  10.615   8.848
43033SOL     OW31105  10.917  10.932   9.098
43033SOL    HW131106  10.908  10.984   9.017
43033SOL    HW231107  11.011  10.912   9.097
43034SOL     OW31108  10.449  10.517   8.550
43034SOL    HW131109  10.371  10.542   8.600
43034SOL    HW231110  10.433  10.559   8.463
43035SOL     OW31111  10.936  10.400   8.546
43035SOL    HW131112  10.917  10.456   8.624
43035SOL    HW231113  10.881  10.443   8.479
43036SOL     OW31114  10.220   9.410   8.846
43036SOL    HW131115  10.253   9.382   8.758
43036SOL    HW231116  10.301   9.451   8.883
43037SOL     OW31117  10.308  10.429   9.188
43037SOL    HW131118  10.216  10.451   9.213
43037SOL    HW231119  10.294  10.352   9.130
43038SOL     OW31120  10.020  10.386   7.790
43038SOL    HW131121  10.000  10.357   7.880
43038SOL    HW231122  10.093  10.326   7.765
43039SOL     OW31123   9.735  10.117   8.710
43039SOL    HW131124   9.808  10.112   8.775
43039SOL    HW231125   9.685  10.035   8.727
43040SOL     OW31126  10.592   9.694   8.727
43040SOL    HW131127  10.613   9.774   8.779
43040SOL    HW231128  10.498   9.709   8.705
43041SOL     OW31129   9.361  10.877   8.793
43041SOL    HW131130   9.333  10.942   8.727
43041SOL    HW231131   9.458  10.886   8.795
43042SOL     OW31132   9.675  10.395   7.947
43042SOL    HW131133   9.675  10.472   7.889
43042SOL    HW231134   9.656  10.322   7.884
43043SOL     OW31135   9.848   9.853   8.287
43043SOL    HW131136   9.876   9.910   8.211
43043SOL    HW231137   9.921   9.867   8.349
43044SOL     OW31138  10.550  10.664   7.830
43044SOL    HW131139  10.608  10.733   7.868
43044SOL    HW231140  10.464  10.692   7.868
43045SOL     OW31141  10.598  10.771   8.615
43045SOL    HW131142  10.661  10.781   8.689
43045SOL    HW231143  10.548  10.691   8.639
43046SOL     OW31144  10.893   9.950   7.918
43046SOL    HW131145  10.836   9.991   7.985
43046SOL    HW231146  10.956  10.020   7.898
43047SOL     OW31147   9.638  10.828   8.780
43047SOL    HW131148   9.628  10.799   8.687
43047SOL    HW231149   9.732  10.851   8.780
43048SOL     OW31150   9.737  10.034   9.060
43048SOL    HW131151   9.796  10.084   9.000
43048SOL    HW231152   9.782   9.949   9.065
43049SOL     OW31153  10.925  10.079   9.119
43049SOL    HW131154  10.836  10.119   9.120
43049SOL    HW231155  10.970  10.136   9.054
43050SOL     OW31156  10.302   9.411   9.188
43050SOL    HW131157  10.358   9.489   9.185
43050SOL    HW231158  10.360   9.345   9.147
43051SOL     OW31159   9.816   9.319   9.195
43051SOL    HW131160   9.770   9.262   9.132
43051SOL    HW231161   9.754   9.393   9.203
43052SOL     OW31162   9.889  10.201   8.487
43052SOL    HW131163   9.927  10.290   8.493
43052SOL    HW231164   9.849  10.186   8.574
43053SOL     OW31165  10.693  10.188   8.465
43053SOL    HW131166  10.604  10.154   8.448
43053SOL    HW231167  10.741  10.105   8.479
43054SOL     OW31168  10.534   9.829   7.726
43054SOL    HW131169  10.528   9.755   7.789
43054SOL    HW231170  10.481   9.898   7.769
43055SOL     OW31171   9.586   9.520   8.695
43055SOL    HW131172   9.565   9.551   8.786
43055SOL    HW231173   9.604   9.425   8.707
43056SOL     OW31174   9.345  10.616   8.718
43056SOL    HW131175   9.377  10.565   8.795
43056SOL    HW231176   9.341  10.707   8.752
43057SOL     OW31177  10.042   9.960   8.497
43057SOL    HW131178  10.122   9.942   8.443
43057SOL    HW231179  10.010  10.047   8.465
43058SOL     OW31180   9.616   9.370   8.057
43058SOL    HW131181   9.590   9.462   8.078
43058SOL    HW231182   9.616   9.329   8.146
43059SOL     OW31183  10.939   9.700   7.796
43059SOL    HW131184  10.961   9.640   7.868
43059SOL    HW231185  10.911   9.780   7.845
43060SOL     OW31186  10.375  10.062   8.404
43060SOL    HW131187  10.358  10.077   8.499
43060SOL    HW231188  10.334   9.974   8.392
43061SOL     OW31189  10.293  10.854   9.156
43061SOL    HW131190  10.315  10.908   9.079
43061SOL    HW231191  10.348  10.774   9.140
43062SOL     OW31192   9.655  10.199   9.261
43062SOL    HW131193   9.735  10.231   9.305
43062SOL    HW231194   9.689  10.130   9.201
43063SOL     OW31195  10.813   9.573   7.582
43063SOL    HW131196  10.749   9.516   7.628
43063SOL    HW231197  10.858   9.619   7.656
43064SOL     OW31198  10.598  10.153   7.477
43064SOL    HW131199  10.644  10.069   7.493
43064SOL    HW231200  10.626  10.173   7.385
43065SOL     OW31201  10.385  10.636   8.303
43065SOL    HW131202  10.377  10.565   8.235
43065SOL    HW231203  10.447  10.699   8.264
43066SOL     OW31204   9.594  10.126   8.446
43066SOL    HW131205   9.687  10.149   8.431
43066SOL    HW231206   9.601  10.032   8.468
43067SOL     OW31207   9.641   9.841   8.455
43067SOL    HW131208   9.607   9.751   8.436
43067SOL    HW231209   9.708   9.852   8.384
43068SOL     OW31210  10.450   9.687   9.120
43068SOL    HW131211  10.405   9.737   9.192
43068SOL    HW231212  10.541   9.724   9.126
43069SOL     OW31213  10.466   9.507   8.918
43069SOL    HW131214  10.460   9.576   8.988
43069SOL    HW231215  10.501   9.559   8.843
43070SOL     OW31216   9.316  10.629   7.622
43070SOL    HW131217   9.225  10.651   7.592
43070SOL    HW231218   9.303  10.541   7.662
43071SOL     OW31219   9.828  10.905   8.380
43071SOL    HW131220   9.903  10.965   8.375
43071SOL    HW231221   9.860  10.830   8.325
43072SOL     OW31222  10.297  10.084   8.665
43072SOL    HW131223  10.341  10.054   8.747
43072SOL    HW231224  10.204  10.065   8.684
43073SOL     OW31225   9.332   9.806   8.564
43073SOL    HW131226   9.405   9.809   8.501
43073SOL    HW231227   9.371   9.850   8.641
43074SOL     OW31228   9.528   9.827   9.165
43074SOL    HW131229   9.591   9.787   9.103
43074SOL    HW231230   9.492   9.902   9.114
43075SOL     OW31231  10.701  10.231   9.097
43075SOL    HW131232  10.712  10.327   9.105
43075SOL    HW231233  10.686  10.219   9.002
43076SOL     OW31234  10.117   9.874   7.833
43076SOL    HW131235  10.130   9.807   7.764
43076SOL    HW231236  10.040   9.924   7.799
43077SOL     OW31237   9.531  10.832   9.175
43077SOL    HW131238   9.520  10.903   9.239
43077SOL    HW231239   9.547  10.754   9.232
43078SOL     OW31240   9.976   9.786   8.709
43078SOL    HW131241   9.952   9.705   8.661
43078SOL    HW231242   9.990   9.851   8.638
43079SOL     OW31243   9.752   9.778   7.651
43079SOL    HW131244   9.818   9.850   7.653
43079SOL    HW231245   9.670   9.828   7.638
43080SOL     OW31246   9.424  10.443   8.910
43080SOL    HW131247   9.453  10.393   8.990
43080SOL    HW231248   9.455  10.385   8.837
43081SOL     OW31249  10.621  10.353   8.670
43081SOL    HW131250  10.650  10.299   8.594
43081SOL    HW231251  10.560  10.416   8.628
43082SOL     OW31252  10.632  10.172   7.753
43082SOL    HW131253  10.557  10.131   7.799
43082SOL    HW231254  10.601  10.177   7.661
43083SOL     OW31255  11.039  11.025   8.594
43083SOL    HW131256   0.008  11.055   8.532
43083SOL    HW231257  11.026  10.932   8.567
43084SOL     OW31258  10.567  11.038   8.537
43084SOL    HW131259  10.655  11.059   8.499
43084SOL    HW231260  10.575  10.943   8.557
43085SOL     OW31261   9.409  10.571   8.462
43085SOL    HW131262   9.379  10.586   8.555
43085SOL    HW231263   9.338  10.514   8.428
43086SOL     OW31264   9.988  10.957   9.178
43086SOL    HW131265   9.922  11.029   9.170
43086SOL    HW231266  10.069  10.998   9.145
43087SOL     OW31267  11.045   9.431   7.978
43087SOL    HW131268  11.098   9.429   7.896
43087SOL    HW231269  11.045   9.338   8.007
43088SOL     OW31270  10.693  10.886   7.932
43088SOL    HW131271  10.766  10.905   7.869
43088SOL    HW231272  10.653  10.973   7.941
43089SOL     OW31273   9.478   0.004   9.279
43089SOL    HW131274   9.420  11.041   9.326
43089SOL    HW231275   9.523   0.045   9.355
43090SOL     OW31276  10.567  10.224   8.111
43090SOL    HW131277  10.646  10.168   8.125
43090SOL    HW231278  10.608  10.303   8.071
43091SOL     OW31279  10.109  10.576   8.881
43091SOL    HW131280  10.081  10.618   8.965
43091SOL    HW231281  10.037  10.605   8.823
43092SOL     OW31282   9.976  10.933   7.587
43092SOL    HW131283   9.985  10.929   7.491
43092SOL    HW231284   9.918  10.855   7.605
43093SOL     OW31285   9.557   9.623   8.146
43093SOL    HW131286   9.473   9.668   8.129
43093SOL    HW231287   9.574   9.646   8.239
43094SOL     OW31288  10.509  10.929   7.479
43094SOL    HW131289  10.505  10.836   7.505
43094SOL    HW231290  10.442  10.934   7.409
43095SOL     OW31291  10.140  10.318   8.798
43095SOL    HW131292  10.209  10.317   8.731
43095SOL    HW231293  10.134  10.412   8.823
43096SOL     OW31294  10.222  10.227   7.718
43096SOL    HW131295  10.298  10.263   7.669
43096SOL    HW231296  10.262  10.154   7.767
43097SOL     OW31297  10.799  10.980   7.493
43097SOL    HW131298  10.712  10.939   7.480
43097SOL    HW231299  10.838  10.971   7.404
43098SOL     OW31300   9.654  10.584   8.941
43098SOL    HW131301   9.648  10.664   8.888
43098SOL    HW231302   9.572  10.537   8.919
43099SOL     OW31303  10.881  10.586   8.741
43099SOL    HW131304  10.963  10.592   8.792
43099SOL    HW231305  10.836  10.670   8.765
43100SOL     OW31306  10.358  10.412   8.162
43100SOL    HW131307  10.289  10.359   8.206
43100SOL    HW231308  10.418  10.343   8.130
43101SOL     OW31309  10.336   9.535   8.433
43101SOL    HW131310  10.326   9.488   8.348
43101SOL    HW231311  10.346   9.461   8.495
43102SOL     OW31312   9.930  10.810   7.957
43102SOL    HW131313   9.955  10.765   7.875
43102SOL    HW231314   9.878  10.885   7.924
43103SOL     OW31315   9.567  10.661   7.735
43103SOL    HW131316   9.471  10.660   7.715
43103SOL    HW231317   9.568  10.700   7.825
43104SOL     OW31318   9.448  10.320   9.145
43104SOL    HW131319   9.371  10.309   9.205
43104SOL    HW231320   9.521  10.281   9.198
43105SOL     OW31321   9.982   9.499   8.941
43105SOL    HW131322  10.068   9.465   8.910
43105SOL    HW231323  10.005   9.528   9.032
43106SOL     OW31324   9.411   9.646   7.464
43106SOL    HW131325   9.317   9.653   7.443
43106SOL    HW231326   9.444   9.729   7.426
43107SOL     OW31327  10.722  10.162   8.831
43107SOL    HW131328  10.674  10.227   8.775
43107SOL    HW231329  10.814  10.185   8.812
43108SOL     OW31330   9.360   9.469   7.741
43108SOL    HW131331   9.357   9.557   7.701
43108SOL    HW231332   9.440   9.432   7.699
43109SOL     OW31333  10.505  10.641   7.559
43109SOL    HW131334  10.422  10.592   7.560
43109SOL    HW231335  10.526  10.644   7.655
43110SOL     OW31336   9.936  10.122   8.880
43110SOL    HW131337   9.989  10.202   8.861
43110SOL    HW231338  10.007  10.056   8.891
43111SOL     OW31339  10.812  11.084   8.402
43111SOL    HW131340  10.844   0.042   8.332
43111SOL    HW231341  10.893  11.058   8.447
43112SOL     OW31342  10.042   9.855   9.160
43112SOL    HW131343  10.080   9.921   9.221
43112SOL    HW231344  10.058   9.771   9.206
43113SOL     OW31345  10.784  10.499   9.062
43113SOL    HW131346  10.771  10.501   9.160
43113SOL    HW231347  10.878  10.523   9.056
43114SOL     OW31348  11.001  10.177   8.682
43114SOL    HW131349  11.004  10.098   8.625
43114SOL    HW231350  10.970  10.247   8.622
43115SOL     OW31351  10.504   9.634   7.924
43115SOL    HW131352  10.571   9.566   7.906
43115SOL    HW231353  10.548   9.685   7.994
43116SOL     OW31354   9.912  10.038   8.092
43116SOL    HW131355   9.943  10.129   8.090
43116SOL    HW231356   9.837  10.039   8.030
43117SOL     OW31357  11.061   9.690   9.085
43117SOL    HW131358  11.026   9.742   9.011
43117SOL    HW231359  10.983   9.642   9.118
43118SOL     OW31360  11.048  10.233   8.939
43118SOL    HW131361  11.042  10.329   8.929
43118SOL    HW231362  11.034  10.201   8.847
43119SOL     OW31363  10.144  10.662   7.485
43119SOL    HW131364  10.127  10.684   7.578
43119SOL    HW231365  10.183  10.743   7.449
43120SOL     OW31366  10.186  10.248   8.292
43120SOL    HW131367  10.254  10.190   8.329
43120SOL    HW231368  10.158  10.301   8.368
43121SOL     OW31369  10.417  10.329   7.550
43121SOL    HW131370  10.381  10.363   7.467
43121SOL    HW231371  10.489  10.270   7.518
43122SOL     OW31372   0.065  10.869   8.297
43122SOL    HW131373  11.089  10.845   8.242
43122SOL    HW231374   0.075  10.791   8.353
43123SOL     OW31375   9.568  10.615   9.330
43123SOL    HW131376   9.490  10.570   9.297
43123SOL    HW231377   9.551  10.613   9.426
43124SOL     OW31378   9.405  10.573   8.115
43124SOL    HW131379   9.412  10.525   8.198
43124SOL    HW231380   9.444  10.510   8.053
43125SOL     OW31381   9.984  10.711   9.072
43125SOL    HW131382   9.911  10.659   9.110
43125SOL    HW231383   9.974  10.798   9.113
43126SOL     OW31384   0.008   9.478   8.632
43126SOL    HW131385   0.019   9.394   8.678
43126SOL    HW231386  11.078   9.450   8.545
43127SOL     OW31387   9.728   9.765   7.969
43127SOL    HW131388   9.785   9.703   7.922
43127SOL    HW231389   9.689   9.711   8.040
43128SOL     OW31390  10.999  10.767   8.522
43128SOL    HW131391  10.914  10.759   8.474
43128SOL    HW231392  10.997  10.691   8.582
43129SOL     OW31393   9.634   9.840   8.739
43129SOL    HW131394   9.704   9.804   8.796
43129SOL    HW231395   9.666   9.820   8.649
43130SOL     OW31396  10.156  10.883   8.134
43130SOL    HW131397  10.149  10.964   8.080
43130SOL    HW231398  10.068  10.844   8.126
43131SOL     OW31399  10.732   9.553   8.551
43131SOL    HW131400  10.758   9.469   8.591
43131SOL    HW231401  10.690   9.600   8.626
43132SOL     OW31402  10.332   9.313   8.611
43132SOL    HW131403  10.277   9.240   8.578
43132SOL    HW231404  10.422   9.276   8.598
43133SOL     OW31405  10.110  10.645   7.764
43133SOL    HW131406  10.056  10.564   7.759
43133SOL    HW231407  10.180  10.618   7.824
43134SOL     OW31408   9.914  10.860   8.719
43134SOL    HW131409   9.926  10.948   8.756
43134SOL    HW231410  10.003  10.842   8.683
43135SOL     OW31411  10.664   9.343   7.661
43135SOL    HW131412  10.663   9.312   7.570
43135SOL    HW231413  10.579   9.304   7.693
43136SOL     OW31414  10.636   9.776   8.120
43136SOL    HW131415  10.571   9.849   8.122
43136SOL    HW231416  10.622   9.733   8.206
43137SOL     OW31417  10.910   9.482   8.329
43137SOL    HW131418  10.838   9.493   8.393
43137SOL    HW231419  10.899   9.561   8.275
43138SOL     OW31420   9.351  10.398   7.785
43138SOL    HW131421   9.435  10.373   7.744
43138SOL    HW231422   9.306  10.312   7.785
43139SOL     OW31423   9.539   9.955   9.443
43139SOL    HW131424   9.448   9.936   9.470
43139SOL    HW231425   9.545   9.927   9.350
43140SOL     OW31426   9.511   9.631  10.288
43140SOL    HW131427   9.542   9.592  10.372
43140SOL    HW231428   9.433   9.573  10.269
43141SOL     OW31429   9.314   9.713   9.932
43141SOL    HW131430   9.234   9.734   9.985
43141SOL    HW231431   9.287   9.629   9.892
43142SOL     OW31432   9.879  10.595  10.445
43142SOL    HW131433   9.785  10.589  10.420
43142SOL    HW231434   9.877  10.668  10.509
43143SOL     OW31435  10.904  10.826  10.026
43143SOL    HW131436  10.859  10.789  10.105
43143SOL    HW231437  10.837  10.818   9.957
43144SOL     OW31438  10.454   9.998  10.009
43144SOL    HW131439  10.495  10.085   9.996
43144SOL    HW231440  10.412  10.011  10.096
43145SOL     OW31441  11.077   9.909   9.539
43145SOL    HW131442  11.052   9.900   9.444
43145SOL    HW231443  11.030   9.833   9.579
43146SOL     OW31444  10.076  10.454  10.331
43146SOL    HW131445  10.002  10.498  10.378
43146SOL    HW231446  10.115  10.529  10.284
43147SOL     OW31447  10.174  10.064   0.032
43147SOL    HW131448  10.159  10.134   0.096
43147SOL    HW231449  10.188  10.114  11.051
43148SOL     OW31450  10.009  10.348   9.968
43148SOL    HW131451  10.062  10.318  10.043
43148SOL    HW231452   9.930  10.386  10.011
43149SOL     OW31453   9.632  10.733  10.372
43149SOL    HW131454   9.565  10.746  10.304
43149SOL    HW231455   9.701  10.795  10.342
43150SOL     OW31456  10.796  10.835  10.643
43150SOL    HW131457  10.827  10.925  10.659
43150SOL    HW231458  10.768  10.808  10.731
43151SOL     OW31459   9.758   9.691  10.780
43151SOL    HW131460   9.827   9.623  10.783
43151SOL    HW231461   9.678   9.645  10.808
43152SOL     OW31462   9.576  10.750   9.846
43152SOL    HW131463   9.576  10.843   9.871
43152SOL    HW231464   9.505  10.711   9.901
43153SOL     OW31465   9.559  10.396  10.196
43153SOL    HW131466   9.579  10.301  10.197
43153SOL    HW231467   9.551  10.413  10.290
43154SOL     OW31468   9.875  10.304   9.426
43154SOL    HW131469   9.930  10.346   9.358
43154SOL    HW231470   9.916  10.339   9.507
43155SOL     OW31471  10.905   9.427  10.819
43155SOL    HW131472  10.949   9.458  10.739
43155SOL    HW231473  10.915   9.502  10.878
43156SOL     OW31474   9.422   9.953   9.866
43156SOL    HW131475   9.395   9.860   9.884
43156SOL    HW231476   9.421   9.993   9.954
43157SOL     OW31477   9.366  10.912   9.425
43157SOL    HW131478   9.355  10.817   9.439
43157SOL    HW231479   9.299  10.949   9.483
43158SOL     OW31480  10.997  10.279   9.908
43158SOL    HW131481  11.062  10.209   9.921
43158SOL    HW231482  11.030  10.323   9.828
43159SOL     OW31483   9.442  10.053  10.905
43159SOL    HW131484   9.535  10.064  10.928
43159SOL    HW231485   9.406  10.141  10.928
43160SOL     OW31486   9.911  10.706  10.069
43160SOL    HW131487   9.874  10.617  10.084
43160SOL    HW231488   9.887  10.718   9.976
43161SOL     OW31489  10.602  10.558  10.737
43161SOL    HW131490  10.619  10.491  10.668
43161SOL    HW231491  10.676  10.541  10.797
43162SOL     OW31492  10.128   9.274   9.829
43162SOL    HW131493  10.169   9.359   9.801
43162SOL    HW231494  10.035   9.301   9.835
43163SOL     OW31495   9.494  10.298  10.551
43163SOL    HW131496   9.582  10.257  10.554
43163SOL    HW231497   9.436  10.220  10.551
43164SOL     OW31498  10.822  10.315   9.529
43164SOL    HW131499  10.757  10.257   9.572
43164SOL    HW231500  10.904  10.293   9.575
43165SOL     OW31501  10.540   0.018  10.916
43165SOL    HW131502  10.524   0.094  10.857
43165SOL    HW231503  10.542  11.045  10.853
43166SOL     OW31504   9.657   9.550   0.006
43166SOL    HW131505   9.715   9.616   0.045
43166SOL    HW231506   9.571   9.598   0.009
43167SOL     OW31507  10.782  10.731  10.258
43167SOL    HW131508  10.716  10.744  10.328
43167SOL    HW231509  10.765  10.639  10.230
43168SOL     OW31510   9.900  10.021   9.578
43168SOL    HW131511   9.899  10.108   9.536
43168SOL    HW231512   9.823  10.026   9.638
43169SOL     OW31513  10.573   9.659  10.234
43169SOL    HW131514  10.487   9.614  10.235
43169SOL    HW231515  10.624   9.607  10.299
43170SOL     OW31516  10.877  10.952   9.614
43170SOL    HW131517  10.931  11.032   9.619
43170SOL    HW231518  10.844  10.958   9.522
43171SOL     OW31519  10.116   9.928  10.773
43171SOL    HW131520  10.092   9.896  10.863
43171SOL    HW231521  10.069   9.865  10.715
43172SOL     OW31522  10.251  10.197  10.894
43172SOL    HW131523  10.294  10.119  10.852
43172SOL    HW231524  10.209  10.243  10.819
43173SOL     OW31525  10.329   9.712  10.572
43173SOL    HW131526  10.238   9.726  10.601
43173SOL    HW231527  10.317   9.667  10.487
43174SOL     OW31528  10.340  10.019   9.717
43174SOL    HW131529  10.350  10.017   9.814
43174SOL    HW231530  10.265   9.956   9.706
43175SOL     OW31531   9.419  10.115  10.094
43175SOL    HW131532   9.492  10.115  10.158
43175SOL    HW231533   9.380  10.202  10.107
43176SOL     OW31534   9.419   0.015  10.887
43176SOL    HW131535   9.400  11.095  10.980
43176SOL    HW231536   9.335   0.048  10.854
43177SOL     OW31537  10.142   9.666   9.447
43177SOL    HW131538  10.216   9.726   9.430
43177SOL    HW231539  10.172   9.619   9.527
43178SOL     OW31540  10.696  10.450   9.878
43178SOL    HW131541  10.763  10.453   9.808
43178SOL    HW231542  10.623  10.497   9.835
43179SOL     OW31543   9.850   9.479  10.201
43179SOL    HW131544   9.864   9.512  10.291
43179SOL    HW231545   9.855   9.560  10.148
43180SOL     OW31546  10.306  10.764   9.813
43180SOL    HW131547  10.292  10.819   9.734
43180SOL    HW231548  10.369  10.815   9.865
43181SOL     OW31549   9.658  -0.000  10.199
43181SOL    HW131550   9.718  11.028  10.224
43181SOL    HW231551   9.719   0.075  10.187
43182SOL     OW31552  11.090  10.374  10.186
43182SOL    HW131553  11.028  10.371  10.111
43182SOL    HW231554  11.033  10.364  10.264
43183SOL     OW31555  10.537  10.862  10.778
43183SOL    HW131556  10.552  10.799  10.849
43183SOL    HW231557  10.484  10.812  10.715
43184SOL     OW31558   9.617  10.258   9.557
43184SOL    HW131559   9.705  10.276   9.522
43184SOL    HW231560   9.592  10.179   9.507
43185SOL     OW31561  10.793  10.062  10.024
43185SOL    HW131562  10.779  10.020  10.110
43185SOL    HW231563  10.870  10.117  10.039
43186SOL     OW31564   9.768  10.559  11.043
43186SOL    HW131565   9.734  10.583  10.954
43186SOL    HW231566   9.719  10.478  11.062
43187SOL     OW31567  10.409  11.069   9.562
43187SOL    HW131568  10.317  11.047   9.581
43187SOL    HW231569  10.424  11.029   9.474
43188SOL     OW31570   9.476   9.591  10.779
43188SOL    HW131571   9.407   9.647  10.814
43188SOL    HW231572   9.467   9.511  10.832
43189SOL     OW31573  10.733   9.416   9.759
43189SOL    HW131574  10.719   9.387   9.667
43189SOL    HW231575  10.828   9.417   9.770
43190SOL     OW31576   9.681  10.004   9.767
43190SOL    HW131577   9.713   9.913   9.782
43190SOL    HW231578   9.588   9.994   9.792
43191SOL     OW31579   9.917   9.434   9.418
43191SOL    HW131580  10.013   9.429   9.422
43191SOL    HW231581   9.896   9.381   9.338
43192SOL     OW31582  10.082   9.563  11.021
43192SOL    HW131583  10.145   9.530  11.087
43192SOL    HW231584  10.020   9.612  11.076
43193SOL     OW31585  10.194  10.846  10.511
43193SOL    HW131586  10.175  10.812  10.422
43193SOL    HW231587  10.252  10.779  10.549
43194SOL     OW31588  10.661   9.905  10.741
43194SOL    HW131589  10.725   9.883  10.810
43194SOL    HW231590  10.683  10.000  10.725
43195SOL     OW31591  10.126  10.738  10.254
43195SOL    HW131592  10.216  10.709  10.225
43195SOL    HW231593  10.069  10.698  10.187
43196SOL     OW31594  10.257   9.824  10.216
43196SOL    HW131595  10.231   9.819  10.120
43196SOL    HW231596  10.266   9.730  10.235
43197SOL     OW31597   9.864   9.352   9.819
43197SOL    HW131598   9.785   9.367   9.874
43197SOL    HW231599   9.863   9.432   9.762
43198SOL     OW31600  10.765  10.489   9.329
43198SOL    HW131601  10.787  10.421   9.395
43198SOL    HW231602  10.688  10.531   9.368
43199SOL     OW31603   9.602   9.345   9.499
43199SOL    HW131604   9.665   9.418   9.497
43199SOL    HW231605   9.655   9.276   9.542
43200SOL     OW31606  10.395   9.986  10.791
43200SOL    HW131607  10.331   9.915  10.774
43200SOL    HW231608  10.482   9.943  10.779
43201SOL     OW31609  10.531  10.863  10.113
43201SOL    HW131610  10.504  10.951  10.084
43201SOL    HW231611  10.619  10.879  10.148
43202SOL     OW31612   9.775  10.470  10.049
43202SOL    HW131613   9.698  10.447  10.105
43202SOL    HW231614   9.741  10.443   9.960
43203SOL     OW31615  10.347   9.846   9.315
43203SOL    HW131616  10.303   9.932   9.299
43203SOL    HW231617  10.410   9.868   9.386
43204SOL     OW31618   9.395   9.880  10.707
43204SOL    HW131619   9.489   9.867  10.685
43204SOL    HW231620   9.400   9.952  10.773
43205SOL     OW31621   9.872   9.550  10.470
43205SOL    HW131622   9.908   9.474  10.517
43205SOL    HW231623   9.779   9.548  10.499
43206SOL     OW31624  10.184   9.780   9.970
43206SOL    HW131625  10.136   9.831   9.904
43206SOL    HW231626  10.210   9.702   9.918
43207SOL     OW31627  10.379   9.376  10.062
43207SOL    HW131628  10.329   9.391   9.980
43207SOL    HW231629  10.333   9.300  10.101
43208SOL     OW31630  10.733  10.473  10.173
43208SOL    HW131631  10.674  10.399  10.193
43208SOL    HW231632  10.728  10.475  10.076
43209SOL     OW31633  10.775   9.903  10.340
43209SOL    HW131634  10.721   9.824  10.326
43209SOL    HW231635  10.864   9.868  10.349
43210SOL     OW31636   0.024  10.130   9.687
43210SOL    HW131637   0.060  10.075   9.759
43210SOL    HW231638   0.011  10.060   9.619
43211SOL     OW31639   9.797  10.736   9.485
43211SOL    HW131640   9.723  10.704   9.540
43211SOL    HW231641   9.765  10.709   9.399
43212SOL     OW31642  10.711   9.906   9.380
43212SOL    HW131643  10.647   9.876   9.449
43212SOL    HW231644  10.795   9.882   9.420
43213SOL     OW31645   9.817   9.546   9.636
43213SOL    HW131646   9.864   9.509   9.559
43213SOL    HW231647   9.790   9.633   9.601
43214SOL     OW31648  11.031  10.532  10.873
43214SOL    HW131649   0.024  10.516  10.857
43214SOL    HW231650  11.032  10.587  10.953
43215SOL     OW31651  10.362  10.666  10.651
43215SOL    HW131652  10.278  10.636  10.694
43215SOL    HW231653  10.430  10.614  10.698
43216SOL     OW31654  10.434  10.513  10.429
43216SOL    HW131655  10.377  10.557  10.493
43216SOL    HW231656  10.407  10.553  10.345
43217SOL     OW31657  10.929  10.375  10.406
43217SOL    HW131658  10.923  10.440  10.479
43217SOL    HW231659  10.845  10.390  10.361
43218SOL     OW31660  10.230   9.417  10.703
43218SOL    HW131661  10.265   9.389  10.616
43218SOL    HW231662  10.309   9.452  10.747
43219SOL     OW31663  10.011  10.380   9.644
43219SOL    HW131664  10.000  10.351   9.736
43219SOL    HW231665  10.089  10.328   9.616
43220SOL     OW31666   9.733  10.129  10.585
43220SOL    HW131667   9.805  10.129  10.650
43220SOL    HW231668   9.697  10.039  10.593
43221SOL     OW31669  10.599   9.676  10.611
43221SOL    HW131670  10.629   9.761  10.649
43221SOL    HW231671  10.508   9.698  10.584
43222SOL     OW31672   9.369  10.893  10.652
43222SOL    HW131673   9.346  10.982  10.625
43222SOL    HW231674   9.466  10.895  10.656
43223SOL     OW31675   9.679  10.381   9.811
43223SOL    HW131676   9.681  10.450   9.744
43223SOL    HW231677   9.667  10.301   9.756
43224SOL     OW31678   9.860   9.840  10.147
43224SOL    HW131679   9.887   9.911  10.085
43224SOL    HW231680   9.924   9.849  10.219
43225SOL     OW31681  10.548  10.656   9.683
43225SOL    HW131682  10.601  10.728   9.721
43225SOL    HW231683  10.464  10.666   9.729
43226SOL     OW31684  10.601  10.758  10.458
43226SOL    HW131685  10.659  10.784  10.532
43226SOL    HW231686  10.548  10.686  10.495
43227SOL     OW31687  10.895   9.952   9.783
43227SOL    HW131688  10.841   9.991   9.854
43227SOL    HW231689  10.901  10.025   9.720
43228SOL     OW31690   9.634  10.833  10.632
43228SOL    HW131691   9.638  10.791  10.544
43228SOL    HW231692   9.726  10.860  10.646
43229SOL     OW31693   9.748  10.046  10.914
43229SOL    HW131694   9.820  10.086  10.861
43229SOL    HW231695   9.761   9.952  10.895
43230SOL     OW31696  10.943  10.063  11.024
43230SOL    HW131697  10.856  10.098  11.044
43230SOL    HW231698  10.972  10.119  10.951
43231SOL     OW31699   9.861  10.211  10.354
43231SOL    HW131700   9.925  10.284  10.363
43231SOL    HW231701   9.838  10.189  10.446
43232SOL     OW31702  10.689  10.177  10.337
43232SOL    HW131703  10.607  10.153  10.291
43232SOL    HW231704  10.727  10.089  10.353
43233SOL     OW31705  10.529   9.844   9.563
43233SOL    HW131706  10.547   9.768   9.624
43233SOL    HW231707  10.471   9.900   9.617
43234SOL     OW31708   9.601   9.526  10.537
43234SOL    HW131709   9.560   9.557  10.620
43234SOL    HW231710   9.578   9.431  10.540
43235SOL     OW31711   9.363  10.626  10.596
43235SOL    HW131712   9.396  10.582  10.677
43235SOL    HW231713   9.357  10.719  10.624
43236SOL     OW31714  10.018   9.953  10.347
43236SOL    HW131715  10.097   9.946  10.292
43236SOL    HW231716   9.974  10.033  10.314
43237SOL     OW31717   9.619   9.375   9.924
43237SOL    HW131718   9.587   9.465   9.946
43237SOL    HW231719   9.619   9.331  10.011
43238SOL     OW31720  10.931   9.699   9.659
43238SOL    HW131721  10.957   9.629   9.720
43238SOL    HW231722  10.909   9.773   9.719
43239SOL     OW31723  10.366  10.062  10.266
43239SOL    HW131724  10.362  10.079  10.361
43239SOL    HW231725  10.336   9.969  10.259
43240SOL     OW31726  10.325  10.847  10.968
43240SOL    HW131727  10.313  10.899  10.887
43240SOL    HW231728  10.271  10.769  10.953
43241SOL     OW31729   9.692  10.249  11.071
43241SOL    HW131730   9.767  10.249   0.031
43241SOL    HW231731   9.714  10.173  11.014
43242SOL     OW31732  10.811   9.577   9.442
43242SOL    HW131733  10.743   9.521   9.484
43242SOL    HW231734  10.850   9.622   9.519
43243SOL     OW31735  10.617  10.157   9.340
43243SOL    HW131736  10.650  10.066   9.350
43243SOL    HW231737  10.651  10.180   9.250
43244SOL     OW31738  10.355  10.638  10.174
43244SOL    HW131739  10.364  10.566  10.108
43244SOL    HW231740  10.431  10.695  10.153
43245SOL     OW31741   9.618  10.131  10.276
43245SOL    HW131742   9.711  10.153  10.299
43245SOL    HW231743   9.617  10.035  10.297
43246SOL     OW31744   9.652   9.859  10.305
43246SOL    HW131745   9.605   9.775  10.290
43246SOL    HW231746   9.722   9.853  10.237
43247SOL     OW31747  10.466   9.525  10.803
43247SOL    HW131748  10.483   9.585  10.876
43247SOL    HW231749  10.510   9.570  10.729
43248SOL     OW31750   9.312  10.630   9.482
43248SOL    HW131751   9.221  10.654   9.454
43248SOL    HW231752   9.299  10.542   9.521
43249SOL     OW31753   9.823  10.890  10.258
43249SOL    HW131754   9.898  10.916  10.313
43249SOL    HW231755   9.863  10.826  10.196
43250SOL     OW31756  10.296  10.130  10.563
43250SOL    HW131757  10.360  10.100  10.630
43250SOL    HW231758  10.228  10.061  10.568
43251SOL     OW31759   9.348   9.843  10.433
43251SOL    HW131760   9.427   9.821  10.383
43251SOL    HW231761   9.381   9.848  10.524
43252SOL     OW31762  10.117   9.876   9.673
43252SOL    HW131763  10.107   9.786   9.639
43252SOL    HW231764  10.041   9.923   9.633
43253SOL     OW31765   9.582  10.863  11.056
43253SOL    HW131766   9.606  10.941   0.009
43253SOL    HW231767   9.524  10.816   0.016
43254SOL     OW31768  10.019   9.783  10.569
43254SOL    HW131769   9.970   9.704  10.539
43254SOL    HW231770  10.007   9.845  10.495
43255SOL     OW31771   9.744   9.778   9.510
43255SOL    HW131772   9.817   9.842   9.513
43255SOL    HW231773   9.667   9.837   9.504
43256SOL     OW31774   9.463  10.463  10.778
43256SOL    HW131775   9.459  10.408  10.858
43256SOL    HW231776   9.473  10.396  10.707
43257SOL     OW31777  10.627  10.347  10.543
43257SOL    HW131778  10.655  10.288  10.470
43257SOL    HW231779  10.558  10.400  10.500
43258SOL     OW31780  10.620  10.164   9.618
43258SOL    HW131781  10.538  10.127   9.655
43258SOL    HW231782  10.599  10.170   9.523
43259SOL     OW31783  11.057  11.045  10.450
43259SOL    HW131784   0.020  11.069  10.380
43259SOL    HW231785  11.042  10.950  10.431
43260SOL     OW31786  10.574  11.027  10.438
43260SOL    HW131787  10.663  11.039  10.400
43260SOL    HW231788  10.567  10.930  10.437
43261SOL     OW31789  11.048   9.441   9.852
43261SOL    HW131790  11.097   9.440   9.767
43261SOL    HW231791  11.039   9.346   9.874
43262SOL     OW31792  10.687  10.884   9.795
43262SOL    HW131793  10.763  10.895   9.734
43262SOL    HW231794  10.658  10.975   9.804
43263SOL     OW31795  10.580  10.240  10.006
43263SOL    HW131796  10.652  10.175  10.011
43263SOL    HW231797  10.616  10.303   9.942
43264SOL     OW31798  10.124  10.598  10.740
43264SOL    HW131799  10.085  10.634  10.822
43264SOL    HW231800  10.046  10.596  10.684
43265SOL     OW31801   9.978  10.925   9.454
43265SOL    HW131802   9.988  10.925   9.357
43265SOL    HW231803   9.915  10.850   9.468
43266SOL     OW31804   9.559   9.623  10.004
43266SOL    HW131805   9.476   9.669   9.981
43266SOL    HW231806   9.566   9.639  10.099
43267SOL     OW31807  10.503  10.934   9.339
43267SOL    HW131808  10.508  10.840   9.362
43267SOL    HW231809  10.438  10.935   9.266
43268SOL     OW31810  10.125  10.328  10.690
43268SOL    HW131811  10.189  10.303  10.621
43268SOL    HW231812  10.148  10.420  10.711
43269SOL     OW31813  10.224  10.237   9.578
43269SOL    HW131814  10.304  10.264   9.529
43269SOL    HW231815  10.253  10.155   9.622
43270SOL     OW31816  10.796  10.969   9.357
43270SOL    HW131817  10.710  10.931   9.337
43270SOL    HW231818  10.846  10.949   9.275
43271SOL     OW31819   9.696  10.598  10.783
43271SOL    HW131820   9.665  10.680  10.742
43271SOL    HW231821   9.617  10.542  10.773
43272SOL     OW31822  10.885  10.570  10.599
43272SOL    HW131823  10.958  10.572  10.663
43272SOL    HW231824  10.852  10.662  10.602
43273SOL     OW31825  10.370  10.421  10.026
43273SOL    HW131826  10.295  10.368  10.060
43273SOL    HW231827  10.439  10.353  10.021
43274SOL     OW31828  10.329   9.538  10.285
43274SOL    HW131829  10.327   9.496  10.197
43274SOL    HW231830  10.335   9.459  10.342
43275SOL     OW31831   9.950  10.826   9.813
43275SOL    HW131832   9.980  10.768   9.740
43275SOL    HW231833   9.883  10.879   9.768
43276SOL     OW31834   9.562  10.667   9.595
43276SOL    HW131835   9.466  10.665   9.580
43276SOL    HW231836   9.567  10.696   9.689
43277SOL     OW31837   9.443  10.320  11.013
43277SOL    HW131838   9.382  10.321  11.087
43277SOL    HW231839   9.529  10.294  11.053
43278SOL     OW31840   9.970   9.504  10.778
43278SOL    HW131841  10.059   9.482  10.742
43278SOL    HW231842   9.996   9.533  10.867
43279SOL     OW31843   9.413   9.645   9.325
43279SOL    HW131844   9.318   9.654   9.320
43279SOL    HW231845   9.444   9.723   9.276
43280SOL     OW31846  10.721  10.164  10.736
43280SOL    HW131847  10.674  10.226  10.678
43280SOL    HW231848  10.811  10.197  10.731
43281SOL     OW31849   9.356   9.462   9.593
43281SOL    HW131850   9.361   9.555   9.567
43281SOL    HW231851   9.443   9.429   9.563
43282SOL     OW31852  10.505  10.652   9.416
43282SOL    HW131853  10.420  10.606   9.411
43282SOL    HW231854  10.524  10.649   9.511
43283SOL     OW31855   9.944  10.136  10.756
43283SOL    HW131856  10.003  10.210  10.732
43283SOL    HW231857  10.008  10.063  10.766
43284SOL     OW31858  10.807  11.065  10.300
43284SOL    HW131859  10.828   0.025  10.228
43284SOL    HW231860  10.893  11.054  10.342
43285SOL     OW31861  10.035   9.859  11.021
43285SOL    HW131862  10.060   9.931  11.082
43285SOL    HW231863  10.107   9.796  11.032
43286SOL     OW31864   9.695  11.027  10.862
43286SOL    HW131865   9.608  11.069  10.850
43286SOL    HW231866   9.675  10.964  10.932
43287SOL     OW31867  11.020  10.173  10.547
43287SOL    HW131868  11.006  10.091  10.499
43287SOL    HW231869  10.980  10.240  10.488
43288SOL     OW31870  10.591   9.652   9.735
43288SOL    HW131871  10.600   9.556   9.742
43288SOL    HW231872  10.596   9.680   9.828
43289SOL     OW31873   9.913  10.054   9.974
43289SOL    HW131874   9.952  10.141   9.954
43289SOL    HW231875   9.842  10.047   9.908
43290SOL     OW31876  11.051   9.686  10.910
43290SOL    HW131877  11.044   9.765  10.854
43290SOL    HW231878  10.980   9.697  10.975
43291SOL     OW31879  11.008  10.229  10.810
43291SOL    HW131880  11.019  10.325  10.818
43291SOL    HW231881  11.032  10.211  10.717
43292SOL     OW31882  10.163  10.684   9.351
43292SOL    HW131883  10.131  10.732   9.429
43292SOL    HW231884  10.188  10.755   9.289
43293SOL     OW31885  10.201  10.262  10.168
43293SOL    HW131886  10.254  10.187  10.201
43293SOL    HW231887  10.174  10.308  10.249
43294SOL     OW31888  10.421  10.317   9.409
43294SOL    HW131889  10.385  10.351   9.326
43294SOL    HW231890  10.499  10.265   9.379
43295SOL     OW31891   0.067  10.840  10.152
43295SOL    HW131892  11.086  10.832  10.101
43295SOL    HW231893   0.053  10.779  10.225
43296SOL     OW31894   9.397  10.571   9.968
43296SOL    HW131895   9.428  10.534  10.052
43296SOL    HW231896   9.432  10.508   9.903
43297SOL     OW31897   9.964  10.702  10.920
43297SOL    HW131898   9.914  10.638  10.975
43297SOL    HW231899   9.908  10.781  10.926
43298SOL     OW31900   0.019   9.483  10.547
43298SOL    HW131901   0.044   9.392  10.566
43298SOL    HW231902  11.080   9.474  10.460
43299SOL     OW31903   9.736   9.752   9.827
43299SOL    HW131904   9.790   9.683   9.785
43299SOL    HW231905   9.693   9.705   9.900
43300SOL     OW31906  11.015  10.787  10.407
43300SOL    HW131907  10.931  10.765  10.362
43300SOL    HW231908  11.032  10.709  10.462
43301SOL     OW31909   9.658   9.857  10.594
43301SOL    HW131910   9.709   9.798  10.654
43301SOL    HW231911   9.674   9.817  10.506
43302SOL     OW31912  10.721   9.520  10.422
43302SOL    HW131913  10.748   9.436  10.460
43302SOL    HW231914  10.689   9.571  10.499
43303SOL     OW31915  10.333   9.313  10.454
43303SOL    HW131916  10.280   9.245  10.409
43303SOL    HW231917  10.422   9.272  10.454
43304SOL     OW31918  10.102  10.649   9.634
43304SOL    HW131919  10.051  10.568   9.616
43304SOL    HW231920  10.174  10.614   9.687
43305SOL     OW31921   9.912  10.857  10.583
43305SOL    HW131922   9.915  10.941  10.630
43305SOL    HW231923  10.005  10.847  10.557
43306SOL     OW31924  10.659   9.351   9.515
43306SOL    HW131925  10.662   9.305   9.430
43306SOL    HW231926  10.574   9.316   9.549
43307SOL     OW31927  10.629   9.779   9.998
43307SOL    HW131928  10.558   9.844   9.983
43307SOL    HW231929  10.606   9.742  10.085
43308SOL     OW31930  10.905   9.527  10.200
43308SOL    HW131931  10.838   9.521  10.271
43308SOL    HW231932  10.855   9.567  10.128
43309SOL     OW31933   9.352  10.387   9.651
43309SOL    HW131934   9.437  10.367   9.609
43309SOL    HW231935   9.320  10.297   9.670
43310NA      NA31936   0.941   1.122   3.610
43311NA      NA31937   0.857   0.804   5.592
43312NA      NA31938   1.557   0.951   5.888
43313NA      NA31939   0.506   0.290   5.874
43314NA      NA31940   1.008   1.731   2.990
43315NA      NA31941   0.207   2.417   3.845
43316NA      NA31942   1.069   2.501   4.782
43317NA      NA31943   0.379   3.373  10.608
43318NA      NA31944   0.334   4.523   0.252
43319NA      NA31945   1.540   5.003   1.721
43320NA      NA31946   0.800   3.815   8.039
43321NA      NA31947   0.314   4.920   8.135
43322NA      NA31948   0.798   4.462   8.417
43323NA      NA31949   1.084   4.664   7.461
43324NA      NA31950   0.035   7.375   1.627
43325NA      NA31951   0.097   6.066   1.148
43326NA      NA31952   0.710   7.210   3.168
43327NA      NA31953   1.622   7.165   5.308
43328NA      NA31954   1.309   6.514   8.073
43329NA      NA31955   0.377   5.869   9.825
43330NA      NA31956   0.483   8.106   1.574
43331NA      NA31957   0.169   8.916   2.477
43332NA      NA31958   0.267   8.872   4.640
43333NA      NA31959   0.204   7.999   5.709
43334NA      NA31960   0.064   9.318   7.204
43335NA      NA31961   0.698   8.301   7.071
43336NA      NA31962   0.854   8.909   5.602
43337NA      NA31963   0.178   8.494   7.839
43338NA      NA31964   2.037  10.886   1.525
43339NA      NA31965   1.047  10.343   2.532
43340NA      NA31966   0.618  10.611   4.364
43341NA      NA31967   0.808  10.055   6.541
43342NA      NA31968   0.370   9.967   9.814
43343NA      NA31969   1.304  10.106  10.311
43344NA      NA31970   2.959   0.941   0.083
43345NA      NA31971   2.453   1.817   3.410
43346NA      NA31972   3.381   0.961   2.167
43347NA      NA31973   2.799   0.146   3.214
43348NA      NA31974   3.579   1.794   3.216
43349NA      NA31975   3.462   0.851   3.012
43350NA      NA31976   2.158   1.128   4.123
43351NA      NA31977   1.960   0.912   7.323
43352NA      NA31978   2.109   1.734   7.873
43353NA      NA31979   3.694   0.171   8.347
43354NA      NA31980   3.325   0.498  10.294
43355NA      NA31981   1.921   2.473   6.253
43356NA      NA31982   2.687   3.262   6.427
43357NA      NA31983   1.983   2.766   8.306
43358NA      NA31984   3.486   5.306   1.563
43359NA      NA31985   2.836   5.357   5.378
43360NA      NA31986   3.703   4.086   5.090
43361NA      NA31987   2.948   4.383   6.622
43362NA      NA31988   1.983   4.201   7.222
43363NA      NA31989   3.454   4.585  10.982
43364NA      NA31990   2.248   6.465   1.850
43365NA      NA31991   2.224   5.661   2.022
43366NA      NA31992   3.337   7.054   9.997
43367NA      NA31993   2.018   6.169  10.725
43368NA      NA31994   2.498   8.396   0.763
43369NA      NA31995   2.274   7.946   1.264
43370NA      NA31996   2.060   7.732   2.910
43371NA      NA31997   2.050   8.726   9.655
43372NA      NA31998   2.424   9.459   1.276
43373NA      NA31999   3.544  10.954   3.347
43374NA      NA32000   3.153   9.792   2.600
43375NA      NA32001   3.490  10.226   5.590
43376NA      NA32002   2.187  10.130   6.508
43377NA      NA32003   4.061   0.795   8.368
43378NA      NA32004   5.155   2.352   3.615
43379NA      NA32005   4.508   2.307   2.475
43380NA      NA32006   5.007   2.816   2.518
43381NA      NA32007   4.583   3.512   4.064
43382NA      NA32008   4.829   2.848   5.624
43383NA      NA32009   5.324   3.255   7.496
43384NA      NA32010   4.948   2.075  10.803
43385NA      NA32011   5.169   3.506   9.342
43386NA      NA32012   4.584   5.173   3.745
43387NA      NA32013   4.199   5.068  10.548
43388NA      NA32014   4.190   5.157   9.512
43389NA      NA32015   4.533   6.980   0.849
43390NA      NA32016   5.340   7.159   1.569
43391NA      NA32017   5.469   5.649   0.480
43392NA      NA32018   4.394   6.175   2.637
43393NA      NA32019   4.705   5.470   8.571
43394NA      NA32020   4.751   8.482   0.627
43395NA      NA32021   4.934   7.988   4.089
43396NA      NA32022   5.066   8.535   6.761
43397NA      NA32023   4.859   7.704   8.923
43398NA      NA32024   4.681   8.325   7.685
43399NA      NA32025   5.467   8.607   9.768
43400NA      NA32026   3.719  10.667   1.399
43401NA      NA32027   5.024  10.260   0.625
43402NA      NA32028   5.497   9.573   3.452
43403NA      NA32029   4.276  10.140   8.500
43404NA      NA32030   5.050  10.391   8.634
43405NA      NA32031   6.183   1.565   2.787
43406NA      NA32032   5.620   1.568   5.761
43407NA      NA32033   6.658   0.643   6.623
43408NA      NA32034   6.609  11.038   8.071
43409NA      NA32035   6.368   1.821   9.080
43410NA      NA32036   6.524   0.877   7.725
43411NA      NA32037   5.671   0.646   9.953
43412NA      NA32038   5.575   1.570   9.490
43413NA      NA32039   7.164   3.227  11.074
43414NA      NA32040   5.991   3.170   1.449
43415NA      NA32041   6.275   3.139   3.252
43416NA      NA32042   7.041   2.399   8.443
43417NA      NA32043   6.911   4.643   0.572
43418NA      NA32044   7.229   4.623   1.235
43419NA      NA32045   6.583   4.009   1.922
43420NA      NA32046   5.541   4.012   8.167
43421NA      NA32047   5.685   5.340   8.803
43422NA      NA32048   6.642   4.258  10.797
43423NA      NA32049   7.426   3.903  10.144
43424NA      NA32050   6.013   6.748   3.595
43425NA      NA32051   5.502   6.831   6.680
43426NA      NA32052   6.257   6.441   8.916
43427NA      NA32053   5.859   5.965  10.069
43428NA      NA32054   6.040   7.479   3.639
43429NA      NA32055   6.395   8.172   8.426
43430NA      NA32056   6.771   7.720   8.937
43431NA      NA32057   7.276   8.892   8.552
43432NA      NA32058   5.861   7.808  10.064
43433NA      NA32059   7.044   9.424   3.630
43434NA      NA32060   5.697  10.227   4.607
43435NA      NA32061   7.250  10.941   7.074
43436NA      NA32062   6.116  10.116   7.716
43437NA      NA32063   6.003  10.174   9.300
43438NA      NA32064   5.717   0.037   9.369
43439NA      NA32065   7.805  11.080   3.600
43440NA      NA32066   7.968   0.838   4.017
43441NA      NA32067   8.865   1.172   4.213
43442NA      NA32068   7.452   1.555   7.612
43443NA      NA32069   8.196   0.481   8.928
43444NA      NA32070   8.802   1.670  10.405
43445NA      NA32071   9.002   2.378   0.726
43446NA      NA32072   7.503   2.475   0.678
43447NA      NA32073   8.140   2.925   3.866
43448NA      NA32074   8.962   1.907   4.075
43449NA      NA32075   9.116   2.417   6.779
43450NA      NA32076   7.706   2.906   7.088
43451NA      NA32077   7.680   3.970   0.997
43452NA      NA32078   8.504   3.843   1.700
43453NA      NA32079   7.572   4.203   1.644
43454NA      NA32080   9.216   4.808   2.690
43455NA      NA32081   8.270   5.135   2.699
43456NA      NA32082   9.267   3.736   2.463
43457NA      NA32083   8.198   4.318   3.807
43458NA      NA32084   8.388   4.543   8.949
43459NA      NA32085   8.053   7.146   6.511
43460NA      NA32086   8.948   6.525   8.807
43461NA      NA32087   9.181   6.490   9.944
43462NA      NA32088   7.782   8.248   0.929
43463NA      NA32089   8.558   8.780   3.593
43464NA      NA32090   7.900   9.286   4.591
43465NA      NA32091   8.142   8.382   4.166
43466NA      NA32092   8.084  10.283   0.793
43467NA      NA32093   7.918   9.363   1.751
43468NA      NA32094   7.849  10.203   1.839
43469NA      NA32095   9.275   9.495   4.527
43470NA      NA32096   7.490   9.725   7.420
43471NA      NA32097   9.336   9.395   8.675
43472NA      NA32098  10.640   0.055   0.134
43473NA      NA32099  10.079   0.036   2.333
43474NA      NA32100  10.871   0.774   5.379
43475NA      NA32101   9.665   2.683   2.056
43476NA      NA32102  10.248   2.734   3.955
43477NA      NA32103   9.789   2.122   7.169
43478NA      NA32104  10.960   2.707   6.805
43479NA      NA32105   9.506   2.888   8.475
43480NA      NA32106   0.055   5.367   1.110
43481NA      NA32107  10.792   4.673   1.373
43482NA      NA32108  10.730   4.533   3.712
43483NA      NA32109  10.091   5.541   5.347
43484NA      NA32110   9.584   4.093   6.337
43485NA      NA32111   9.975   3.770   7.494
43486NA      NA32112  10.346   3.593  10.517
43487NA      NA32113   9.756   7.416   0.876
43488NA      NA32114  10.759   5.712   3.622
43489NA      NA32115   9.761   6.846   9.228
43490NA      NA32116  10.697   6.549   9.083
43491NA      NA32117  10.653   9.190   0.416
43492NA      NA32118   9.729   8.308   3.718
43493NA      NA32119  10.229   9.120   3.264
43494NA      NA32120  10.976   9.083   5.238
43495NA      NA32121   9.507   7.521   4.387
43496NA      NA32122   9.835   8.838   6.720
43497NA      NA32123   9.518   8.485   8.461
43498NA      NA32124   9.263   7.731  10.027
43499NA      NA32125  10.446  10.643   1.707
43500NA      NA32126   9.745  10.647   3.120
43501NA      NA32127  10.659  10.383   3.018
43502NA      NA32128   9.285  10.535  10.400
43503NA      NA32129  10.103  10.905   9.974
43504CL      CL32130   0.326   0.962   0.248
43505CL      CL32131   1.223   1.605   4.543
43506CL      CL32132   0.256   1.344   4.013
43507CL      CL32133   0.393   0.810   8.679
43508CL      CL32134   1.769   2.716   2.282
43509CL      CL32135   0.175   2.130   7.083
43510CL      CL32136   0.192   3.720   9.270
43511CL      CL32137   1.137   2.076  10.800
43512CL      CL32138   1.596   4.112   3.248
43513CL      CL32139   1.895   5.253   6.370
43514CL      CL32140   0.355   4.276   6.932
43515CL      CL32141   1.637   4.048   7.815
43516CL      CL32142   1.875   7.069   1.625
43517CL      CL32143   0.672   5.817   3.320
43518CL      CL32144   0.882   5.556   7.993
43519CL      CL32145   0.972   5.964  10.613
43520CL      CL32146   0.811   7.205  10.000
43521CL      CL32147   0.867   8.349   2.701
43522CL      CL32148  11.085   7.828   8.087
43523CL      CL32149   1.217   7.602   8.897
43524CL      CL32150   1.264   9.192   8.613
43525CL      CL32151   1.326   8.255   9.365
43526CL      CL32152   0.893   9.770   2.468
43527CL      CL32153   0.854   9.788   4.328
43528CL      CL32154   1.459  10.043   6.293
43529CL      CL32155   1.507  10.901   8.773
43530CL      CL32156   1.023  10.241  10.903
43531CL      CL32157   3.274   1.163   0.893
43532CL      CL32158   2.032   1.857   1.818
43533CL      CL32159   2.287   1.261   5.453
43534CL      CL32160   2.403  11.070   4.229
43535CL      CL32161   3.083   1.608   4.537
43536CL      CL32162   2.647   1.123   6.693
43537CL      CL32163   2.322   2.278   2.400
43538CL      CL32164   2.148   2.658   4.714
43539CL      CL32165   2.267   3.084   5.165
43540CL      CL32166   2.643   4.001   1.742
43541CL      CL32167   3.211   6.424   0.365
43542CL      CL32168   2.167   5.822   7.351
43543CL      CL32169   2.854   6.445   8.683
43544CL      CL32170   3.071   9.276   6.181
43545CL      CL32171   3.078   7.745   7.908
43546CL      CL32172   2.721   9.681   0.194
43547CL      CL32173   3.140  10.774   1.156
43548CL      CL32174   2.741  10.064   5.517
43549CL      CL32175   1.928   0.051   7.046
43550CL      CL32176   2.864  10.462   8.103
43551CL      CL32177   5.006   1.767   3.039
43552CL      CL32178   5.228   1.535   4.456
43553CL      CL32179   5.592   1.487   7.211
43554CL      CL32180   5.216   0.260   5.712
43555CL      CL32181   3.800   2.911   5.426
43556CL      CL32182   5.326   4.640   0.133
43557CL      CL32183   4.538   5.336   2.548
43558CL      CL32184   5.065   5.303   7.990
43559CL      CL32185   4.046   7.049   8.529
43560CL      CL32186   3.840   5.868   9.365
43561CL      CL32187   4.045   7.671   3.620
43562CL      CL32188   4.989   8.396   2.615
43563CL      CL32189   4.036   8.945   6.676
43564CL      CL32190   4.325   8.653   8.664
43565CL      CL32191   3.717  10.679   0.214
43566CL      CL32192   5.152   9.466   7.906
43567CL      CL32193   4.603   9.294   9.843
43568CL      CL32194   6.605   1.148   5.485
43569CL      CL32195   6.925   1.556   4.254
43570CL      CL32196   7.177   0.472   8.208
43571CL      CL32197   6.812   0.527   9.544
43572CL      CL32198   6.843   2.276   0.982
43573CL      CL32199   5.867   1.885   0.172
43574CL      CL32200   6.415   2.471   8.907
43575CL      CL32201   6.948   6.157   1.386
43576CL      CL32202   7.187   6.896   3.141
43577CL      CL32203   5.977   6.870  10.784
43578CL      CL32204   7.270   8.319   6.277
43579CL      CL32205   6.788  11.055   1.662
43580CL      CL32206   6.468   9.295   2.394
43581CL      CL32207   7.421  10.377   4.567
43582CL      CL32208   6.406   9.923   7.053
43583CL      CL32209   6.329  10.736   7.238
43584CL      CL32210   6.739   9.512  10.825
43585CL      CL32211   5.721  10.362  11.015
43586CL      CL32212   9.010   1.647   1.665
43587CL      CL32213   9.035   1.105   2.290
43588CL      CL32214   8.434   0.007   6.738
43589CL      CL32215   8.943   0.747   8.153
43590CL      CL32216   8.116   1.654   9.459
43591CL      CL32217   8.010   2.848   1.961
43592CL      CL32218   9.178   3.096   3.415
43593CL      CL32219   8.523   3.192   4.558
43594CL      CL32220   8.234   2.968   6.691
43595CL      CL32221   8.006   2.847   7.543
43596CL      CL32222   8.846   1.914   7.565
43597CL      CL32223   8.091   3.365  10.607
43598CL      CL32224   8.463   5.265   1.728
43599CL      CL32225   7.759   6.563   2.120
43600CL      CL32226   8.413   5.978  10.616
43601CL      CL32227   9.065   6.887  10.585
43602CL      CL32228   9.116   9.089   1.402
43603CL      CL32229   8.080   7.911   5.019
43604CL      CL32230   8.611   9.497   1.494
43605CL      CL32231   9.086   9.940   1.233
43606CL      CL32232   8.230   9.578   5.462
43607CL      CL32233   8.415   9.791   3.715
43608CL      CL32234   9.220  10.252   7.444
43609CL      CL32235   7.736  10.661   7.768
43610CL      CL32236   9.322   0.137   0.291
43611CL      CL32237  10.691   0.952   7.202
43612CL      CL32238   9.985   1.676   7.585
43613CL      CL32239  10.399   1.795   9.586
43614CL      CL32240  10.074   2.153   1.745
43615CL      CL32241  10.940   3.783   1.542
43616CL      CL32242  10.211   3.958   2.316
43617CL      CL32243   9.351   4.277   3.263
43618CL      CL32244  10.115   5.003   3.225
43619CL      CL32245  10.234   5.436   7.062
43620CL      CL32246  10.596   5.473   8.629
43621CL      CL32247   9.644   6.123   1.326
43622CL      CL32248   9.997   6.638   2.513
43623CL      CL32249   9.412   7.357   2.816
43624CL      CL32250   9.651   7.114   5.122
43625CL      CL32251  10.528   6.122   7.718
43626CL      CL32252  10.232   5.820   9.791
43627CL      CL32253  10.224   9.545   9.750
  11.10136  11.10136  11.10136
